version 2
run General-0-20120730-09:31:34-5896
attr configname General
attr datetime 20120730-09:31:34
attr experiment General
attr inifile omnetpp.ini
attr iterationvars ""
attr iterationvars2 $repetition=0
attr measurement ""
attr network inet.examples.ansaExamples.IPv6Ospf.IPv6Ospf
attr processid 5896
attr repetition 0
attr replication #0
attr resultdir results
attr runnumber 0
attr seedset 0

vector 6  IPv6Ospf.R1.eth[0].mac  framesSent  ETV
vector 8  IPv6Ospf.R1.eth[0].mac  bytesSent  ETV
vector 24  IPv6Ospf.R2.eth[0].mac  framesSent  ETV
vector 26  IPv6Ospf.R2.eth[0].mac  bytesSent  ETV
vector 42  IPv6Ospf.R3.eth[0].mac  framesSent  ETV
vector 44  IPv6Ospf.R3.eth[0].mac  bytesSent  ETV
vector 60  IPv6Ospf.R4.eth[0].mac  framesSent  ETV
vector 62  IPv6Ospf.R4.eth[0].mac  bytesSent  ETV
vector 78  IPv6Ospf.R5.eth[0].mac  framesSent  ETV
vector 80  IPv6Ospf.R5.eth[0].mac  bytesSent  ETV
vector 92  IPv6Ospf.SW.mac[0]  framesReceivedOK  ETV
vector 94  IPv6Ospf.SW.mac[0]  bytesReceivedOK  ETV
vector 98  IPv6Ospf.SW.mac[0]  framesPassedToHL  ETV
vector 104  IPv6Ospf.SW.mac[1]  framesReceivedOK  ETV
vector 106  IPv6Ospf.SW.mac[1]  bytesReceivedOK  ETV
vector 110  IPv6Ospf.SW.mac[1]  framesPassedToHL  ETV
vector 116  IPv6Ospf.SW.mac[2]  framesReceivedOK  ETV
vector 118  IPv6Ospf.SW.mac[2]  bytesReceivedOK  ETV
vector 122  IPv6Ospf.SW.mac[2]  framesPassedToHL  ETV
vector 128  IPv6Ospf.SW.mac[3]  framesReceivedOK  ETV
vector 130  IPv6Ospf.SW.mac[3]  bytesReceivedOK  ETV
vector 134  IPv6Ospf.SW.mac[3]  framesPassedToHL  ETV
vector 140  IPv6Ospf.SW.mac[4]  framesReceivedOK  ETV
vector 142  IPv6Ospf.SW.mac[4]  bytesReceivedOK  ETV
vector 146  IPv6Ospf.SW.mac[4]  framesPassedToHL  ETV
vector 90  IPv6Ospf.SW.relayUnit  "buffer level"  ETV
vector 103  IPv6Ospf.SW.mac[1]  framesSent  ETV
vector 105  IPv6Ospf.SW.mac[1]  bytesSent  ETV
vector 115  IPv6Ospf.SW.mac[2]  framesSent  ETV
vector 117  IPv6Ospf.SW.mac[2]  bytesSent  ETV
vector 127  IPv6Ospf.SW.mac[3]  framesSent  ETV
vector 129  IPv6Ospf.SW.mac[3]  bytesSent  ETV
vector 139  IPv6Ospf.SW.mac[4]  framesSent  ETV
vector 141  IPv6Ospf.SW.mac[4]  bytesSent  ETV
vector 91  IPv6Ospf.SW.mac[0]  framesSent  ETV
vector 93  IPv6Ospf.SW.mac[0]  bytesSent  ETV
vector 25  IPv6Ospf.R2.eth[0].mac  framesReceivedOK  ETV
vector 27  IPv6Ospf.R2.eth[0].mac  bytesReceivedOK  ETV
vector 31  IPv6Ospf.R2.eth[0].mac  framesPassedToHL  ETV
vector 43  IPv6Ospf.R3.eth[0].mac  framesReceivedOK  ETV
vector 45  IPv6Ospf.R3.eth[0].mac  bytesReceivedOK  ETV
vector 49  IPv6Ospf.R3.eth[0].mac  framesPassedToHL  ETV
vector 61  IPv6Ospf.R4.eth[0].mac  framesReceivedOK  ETV
vector 63  IPv6Ospf.R4.eth[0].mac  bytesReceivedOK  ETV
vector 67  IPv6Ospf.R4.eth[0].mac  framesPassedToHL  ETV
vector 79  IPv6Ospf.R5.eth[0].mac  framesReceivedOK  ETV
vector 81  IPv6Ospf.R5.eth[0].mac  bytesReceivedOK  ETV
vector 85  IPv6Ospf.R5.eth[0].mac  framesPassedToHL  ETV
vector 7  IPv6Ospf.R1.eth[0].mac  framesReceivedOK  ETV
vector 9  IPv6Ospf.R1.eth[0].mac  bytesReceivedOK  ETV
vector 13  IPv6Ospf.R1.eth[0].mac  framesPassedToHL  ETV
6	71	0.001006719999	1
6	299	0.017020612716	2
6	523	0.10675142479	3
6	750	1.104149909683	4
7	130	0.001013439998	1
7	175	0.001020159997	2
7	220	0.001026879996	3
7	265	0.001033599995	4
7	367	0.081810328353	5
7	411	0.087841144167	6
7	455	0.089886840849	7
7	499	0.098009761819	8
7	587	0.111750200162	9
7	631	0.115045896394	10
7	675	0.143312973494	11
7	719	0.289112269215	12
7	819	1.135264295514	13
7	869	1.511554510856	14
7	917	1.72998220491	15
8	71	0.001006719999	64
8	299	0.017020612716	128
8	523	0.10675142479	192
8	750	1.104149909683	256
9	130	0.001013439998	64
9	175	0.001020159997	128
9	220	0.001026879996	192
9	265	0.001033599995	256
9	367	0.081810328353	320
9	411	0.087841144167	384
9	455	0.089886840849	448
9	499	0.098009761819	512
9	587	0.111750200162	576
9	631	0.115045896394	640
9	675	0.143312973494	704
9	719	0.289112269215	768
9	819	1.135264295514	832
9	869	1.511554510856	896
9	917	1.72998220491	960
13	130	0.001013439998	1
13	175	0.001020159997	2
13	220	0.001026879996	3
13	265	0.001033599995	4
13	367	0.081810328353	5
13	411	0.087841144167	6
13	455	0.089886840849	7
13	499	0.098009761819	8
13	587	0.111750200162	9
13	631	0.115045896394	10
13	675	0.143312973494	11
13	719	0.289112269215	12
13	819	1.135264295514	13
13	869	1.511554510856	14
13	917	1.72998220491	15
24	72	0.001006719999	1
24	391	0.087834424168	2
24	699	0.289105549216	3
25	126	0.001013439998	1
25	171	0.001020159997	2
25	216	0.001026879996	3
25	261	0.001033599995	4
25	319	0.017027332715	5
25	368	0.081810328353	6
25	456	0.089886840849	7
25	500	0.098009761819	8
25	543	0.106758144789	9
25	588	0.111750200162	10
25	632	0.115045896394	11
25	676	0.143312973494	12
25	770	1.104156629682	13
25	820	1.135264295514	14
25	870	1.511554510856	15
25	918	1.72998220491	16
26	72	0.001006719999	64
26	391	0.087834424168	128
26	699	0.289105549216	192
27	126	0.001013439998	64
27	171	0.001020159997	128
27	216	0.001026879996	192
27	261	0.001033599995	256
27	319	0.017027332715	320
27	368	0.081810328353	384
27	456	0.089886840849	448
27	500	0.098009761819	512
27	543	0.106758144789	576
27	588	0.111750200162	640
27	632	0.115045896394	704
27	676	0.143312973494	768
27	770	1.104156629682	832
27	820	1.135264295514	896
27	870	1.511554510856	960
27	918	1.72998220491	1024
31	126	0.001013439998	1
31	171	0.001020159997	2
31	216	0.001026879996	3
31	261	0.001033599995	4
31	319	0.017027332715	5
31	368	0.081810328353	6
31	456	0.089886840849	7
31	500	0.098009761819	8
31	543	0.106758144789	9
31	588	0.111750200162	10
31	632	0.115045896394	11
31	676	0.143312973494	12
31	770	1.104156629682	13
31	820	1.135264295514	14
31	870	1.511554510856	15
31	918	1.72998220491	16
42	73	0.001006719999	1
42	347	0.081803608354	2
42	435	0.08988012085	3
42	897	1.729975484911	4
43	127	0.001013439998	1
43	172	0.001020159997	2
43	217	0.001026879996	3
43	262	0.001033599995	4
43	320	0.017027332715	5
43	412	0.087841144167	6
43	501	0.098009761819	7
43	544	0.106758144789	8
43	589	0.111750200162	9
43	633	0.115045896394	10
43	677	0.143312973494	11
43	720	0.289112269215	12
43	771	1.104156629682	13
43	821	1.135264295514	14
43	871	1.511554510856	15
44	73	0.001006719999	64
44	347	0.081803608354	128
44	435	0.08988012085	192
44	897	1.729975484911	256
45	127	0.001013439998	64
45	172	0.001020159997	128
45	217	0.001026879996	192
45	262	0.001033599995	256
45	320	0.017027332715	320
45	412	0.087841144167	384
45	501	0.098009761819	448
45	544	0.106758144789	512
45	589	0.111750200162	576
45	633	0.115045896394	640
45	677	0.143312973494	704
45	720	0.289112269215	768
45	771	1.104156629682	832
45	821	1.135264295514	896
45	871	1.511554510856	960
49	127	0.001013439998	1
49	172	0.001020159997	2
49	217	0.001026879996	3
49	262	0.001033599995	4
49	320	0.017027332715	5
49	412	0.087841144167	6
49	501	0.098009761819	7
49	544	0.106758144789	8
49	589	0.111750200162	9
49	633	0.115045896394	10
49	677	0.143312973494	11
49	720	0.289112269215	12
49	771	1.104156629682	13
49	821	1.135264295514	14
49	871	1.511554510856	15
60	74	0.001006719999	1
60	567	0.111743480163	2
60	611	0.115039176395	3
60	799	1.135257575515	4
61	128	0.001013439998	1
61	173	0.001020159997	2
61	218	0.001026879996	3
61	263	0.001033599995	4
61	321	0.017027332715	5
61	369	0.081810328353	6
61	413	0.087841144167	7
61	457	0.089886840849	8
61	502	0.098009761819	9
61	545	0.106758144789	10
61	678	0.143312973494	11
61	721	0.289112269215	12
61	772	1.104156629682	13
61	872	1.511554510856	14
61	919	1.72998220491	15
62	74	0.001006719999	64
62	567	0.111743480163	128
62	611	0.115039176395	192
62	799	1.135257575515	256
63	128	0.001013439998	64
63	173	0.001020159997	128
63	218	0.001026879996	192
63	263	0.001033599995	256
63	321	0.017027332715	320
63	369	0.081810328353	384
63	413	0.087841144167	448
63	457	0.089886840849	512
63	502	0.098009761819	576
63	545	0.106758144789	640
63	678	0.143312973494	704
63	721	0.289112269215	768
63	772	1.104156629682	832
63	872	1.511554510856	896
63	919	1.72998220491	960
67	128	0.001013439998	1
67	173	0.001020159997	2
67	218	0.001026879996	3
67	263	0.001033599995	4
67	321	0.017027332715	5
67	369	0.081810328353	6
67	413	0.087841144167	7
67	457	0.089886840849	8
67	502	0.098009761819	9
67	545	0.106758144789	10
67	678	0.143312973494	11
67	721	0.289112269215	12
67	772	1.104156629682	13
67	872	1.511554510856	14
67	919	1.72998220491	15
78	75	0.001006719999	1
78	479	0.09800304182	2
78	655	0.143306253495	3
78	849	1.511547790857	4
79	129	0.001013439998	1
79	174	0.001020159997	2
79	219	0.001026879996	3
79	264	0.001033599995	4
79	322	0.017027332715	5
79	370	0.081810328353	6
79	414	0.087841144167	7
79	458	0.089886840849	8
79	546	0.106758144789	9
79	590	0.111750200162	10
79	634	0.115045896394	11
79	722	0.289112269215	12
79	773	1.104156629682	13
79	822	1.135264295514	14
79	920	1.72998220491	15
80	75	0.001006719999	64
80	479	0.09800304182	128
80	655	0.143306253495	192
80	849	1.511547790857	256
81	129	0.001013439998	64
81	174	0.001020159997	128
81	219	0.001026879996	192
81	264	0.001033599995	256
81	322	0.017027332715	320
81	370	0.081810328353	384
81	414	0.087841144167	448
81	458	0.089886840849	512
81	546	0.106758144789	576
81	590	0.111750200162	640
81	634	0.115045896394	704
81	722	0.289112269215	768
81	773	1.104156629682	832
81	822	1.135264295514	896
81	920	1.72998220491	960
85	129	0.001013439998	1
85	174	0.001020159997	2
85	219	0.001026879996	3
85	264	0.001033599995	4
85	322	0.017027332715	5
85	370	0.081810328353	6
85	414	0.087841144167	7
85	458	0.089886840849	8
85	546	0.106758144789	9
85	590	0.111750200162	10
85	634	0.115045896394	11
85	722	0.289112269215	12
85	773	1.104156629682	13
85	822	1.135264295514	14
85	920	1.72998220491	15
90	81	0.001006719999	64
90	82	0.001006719999	128
90	83	0.001006719999	192
90	84	0.001006719999	256
90	85	0.001006719999	320
90	86	0.001006719999	256
90	91	0.001006719999	192
90	96	0.001006719999	128
90	101	0.001006719999	64
90	106	0.001006719999	0
90	301	0.017020612716	64
90	302	0.017020612716	0
90	349	0.081803608354	64
90	350	0.081803608354	0
90	393	0.087834424168	64
90	394	0.087834424168	0
90	437	0.08988012085	64
90	438	0.08988012085	0
90	481	0.09800304182	64
90	482	0.09800304182	0
90	525	0.10675142479	64
90	526	0.10675142479	0
90	569	0.111743480163	64
90	570	0.111743480163	0
90	613	0.115039176395	64
90	614	0.115039176395	0
90	657	0.143306253495	64
90	658	0.143306253495	0
90	701	0.289105549216	64
90	702	0.289105549216	0
90	752	1.104149909683	64
90	753	1.104149909683	0
90	801	1.135257575515	64
90	802	1.135257575515	0
90	851	1.511547790857	64
90	852	1.511547790857	0
90	899	1.729975484911	64
90	900	1.729975484911	0
91	125	0.001013439998	1
91	170	0.001020159997	2
91	215	0.001026879996	3
91	260	0.001033599995	4
91	363	0.081810328353	5
91	407	0.087841144167	6
91	451	0.089886840849	7
91	495	0.098009761819	8
91	583	0.111750200162	9
91	627	0.115045896394	10
91	671	0.143312973494	11
91	715	0.289112269215	12
91	815	1.135264295514	13
91	865	1.511554510856	14
91	913	1.72998220491	15
92	76	0.001006719999	1
92	300	0.017020612716	2
92	524	0.10675142479	3
92	751	1.104149909683	4
93	125	0.001013439998	64
93	170	0.001020159997	128
93	215	0.001026879996	192
93	260	0.001033599995	256
93	363	0.081810328353	320
93	407	0.087841144167	384
93	451	0.089886840849	448
93	495	0.098009761819	512
93	583	0.111750200162	576
93	627	0.115045896394	640
93	671	0.143312973494	704
93	715	0.289112269215	768
93	815	1.135264295514	832
93	865	1.511554510856	896
93	913	1.72998220491	960
94	76	0.001006719999	64
94	300	0.017020612716	128
94	524	0.10675142479	192
94	751	1.104149909683	256
98	76	0.001006719999	1
98	300	0.017020612716	2
98	524	0.10675142479	3
98	751	1.104149909683	4
103	121	0.001013439998	1
103	166	0.001020159997	2
103	211	0.001026879996	3
103	256	0.001033599995	4
103	315	0.017027332715	5
103	364	0.081810328353	6
103	452	0.089886840849	7
103	496	0.098009761819	8
103	539	0.106758144789	9
103	584	0.111750200162	10
103	628	0.115045896394	11
103	672	0.143312973494	12
103	766	1.104156629682	13
103	816	1.135264295514	14
103	866	1.511554510856	15
103	914	1.72998220491	16
104	77	0.001006719999	1
104	392	0.087834424168	2
104	700	0.289105549216	3
105	121	0.001013439998	64
105	166	0.001020159997	128
105	211	0.001026879996	192
105	256	0.001033599995	256
105	315	0.017027332715	320
105	364	0.081810328353	384
105	452	0.089886840849	448
105	496	0.098009761819	512
105	539	0.106758144789	576
105	584	0.111750200162	640
105	628	0.115045896394	704
105	672	0.143312973494	768
105	766	1.104156629682	832
105	816	1.135264295514	896
105	866	1.511554510856	960
105	914	1.72998220491	1024
106	77	0.001006719999	64
106	392	0.087834424168	128
106	700	0.289105549216	192
110	77	0.001006719999	1
110	392	0.087834424168	2
110	700	0.289105549216	3
115	122	0.001013439998	1
115	167	0.001020159997	2
115	212	0.001026879996	3
115	257	0.001033599995	4
115	316	0.017027332715	5
115	408	0.087841144167	6
115	497	0.098009761819	7
115	540	0.106758144789	8
115	585	0.111750200162	9
115	629	0.115045896394	10
115	673	0.143312973494	11
115	716	0.289112269215	12
115	767	1.104156629682	13
115	817	1.135264295514	14
115	867	1.511554510856	15
116	78	0.001006719999	1
116	348	0.081803608354	2
116	436	0.08988012085	3
116	898	1.729975484911	4
117	122	0.001013439998	64
117	167	0.001020159997	128
117	212	0.001026879996	192
117	257	0.001033599995	256
117	316	0.017027332715	320
117	408	0.087841144167	384
117	497	0.098009761819	448
117	540	0.106758144789	512
117	585	0.111750200162	576
117	629	0.115045896394	640
117	673	0.143312973494	704
117	716	0.289112269215	768
117	767	1.104156629682	832
117	817	1.135264295514	896
117	867	1.511554510856	960
118	78	0.001006719999	64
118	348	0.081803608354	128
118	436	0.08988012085	192
118	898	1.729975484911	256
122	78	0.001006719999	1
122	348	0.081803608354	2
122	436	0.08988012085	3
122	898	1.729975484911	4
127	123	0.001013439998	1
127	168	0.001020159997	2
127	213	0.001026879996	3
127	258	0.001033599995	4
127	317	0.017027332715	5
127	365	0.081810328353	6
127	409	0.087841144167	7
127	453	0.089886840849	8
127	498	0.098009761819	9
127	541	0.106758144789	10
127	674	0.143312973494	11
127	717	0.289112269215	12
127	768	1.104156629682	13
127	868	1.511554510856	14
127	915	1.72998220491	15
128	79	0.001006719999	1
128	568	0.111743480163	2
128	612	0.115039176395	3
128	800	1.135257575515	4
129	123	0.001013439998	64
129	168	0.001020159997	128
129	213	0.001026879996	192
129	258	0.001033599995	256
129	317	0.017027332715	320
129	365	0.081810328353	384
129	409	0.087841144167	448
129	453	0.089886840849	512
129	498	0.098009761819	576
129	541	0.106758144789	640
129	674	0.143312973494	704
129	717	0.289112269215	768
129	768	1.104156629682	832
129	868	1.511554510856	896
129	915	1.72998220491	960
130	79	0.001006719999	64
130	568	0.111743480163	128
130	612	0.115039176395	192
130	800	1.135257575515	256
134	79	0.001006719999	1
134	568	0.111743480163	2
134	612	0.115039176395	3
134	800	1.135257575515	4
139	124	0.001013439998	1
139	169	0.001020159997	2
139	214	0.001026879996	3
139	259	0.001033599995	4
139	318	0.017027332715	5
139	366	0.081810328353	6
139	410	0.087841144167	7
139	454	0.089886840849	8
139	542	0.106758144789	9
139	586	0.111750200162	10
139	630	0.115045896394	11
139	718	0.289112269215	12
139	769	1.104156629682	13
139	818	1.135264295514	14
139	916	1.72998220491	15
140	80	0.001006719999	1
140	480	0.09800304182	2
140	656	0.143306253495	3
140	850	1.511547790857	4
141	124	0.001013439998	64
141	169	0.001020159997	128
141	214	0.001026879996	192
141	259	0.001033599995	256
141	318	0.017027332715	320
141	366	0.081810328353	384
141	410	0.087841144167	448
141	454	0.089886840849	512
141	542	0.106758144789	576
141	586	0.111750200162	640
141	630	0.115045896394	704
141	718	0.289112269215	768
141	769	1.104156629682	832
141	818	1.135264295514	896
141	916	1.72998220491	960
142	80	0.001006719999	64
142	480	0.09800304182	128
142	656	0.143306253495	192
142	850	1.511547790857	256
146	80	0.001006719999	1
146	480	0.09800304182	2
146	656	0.143306253495	3
146	850	1.511547790857	4
