file 1241696 1424256077                                         
version 2
run CacheSyncNaive-3outages-wAck-0-20150218-10:41:17-7048
attr configname CacheSyncNaive-3outages-wAck
attr datetime 20150218-10:41:17
attr experiment CacheSyncNaive-3outages-wAck
attr inifile omnetpp.ini
attr iterationvars ""
attr iterationvars2 $repetition=0
attr measurement ""
attr network LispSyncTest
attr processid 7048
attr repetition 0
attr replication #0
attr resultdir results
attr runnumber 0
attr seedset 0
vector 9  LispSyncTest.SW.ethg$o[0].channel  busy:vector  ETV
attr interpolationmode sample-hold
attr source channelBusy
9	42575 3689 0 10537 0 118.843665749908 143 0 1 71 71
vector 11  LispSyncTest.SW.ethg$o[1].channel  busy:vector  ETV
attr interpolationmode sample-hold
attr source channelBusy
11	157378 23460 0 48830 0 299.656262529999 831 0 1 415 415
vector 12  LispSyncTest.SW.ethg$o[2].channel  busy:vector  ETV
attr interpolationmode sample-hold
attr source channelBusy
12	180838 27848 0 48831 0 299.656262529999 985 0 1 492 492
vector 14  LispSyncTest.SW.ethg$o[3].channel  busy:vector  ETV
attr interpolationmode sample-hold
attr source channelBusy
14	222374 25066 0 48832 0 299.656262529999 885 0 1 442 442
vector 13  LispSyncTest.Host1.ethg$o[0].channel  busy:vector  ETV
attr interpolationmode sample-hold
attr source channelBusy
13	208686 13688 0 48728 0 299.323012449984 481 0 1 240 240
vector 15  LispSyncTest.Host2.ethg$o[0].channel  busy:vector  ETV
attr interpolationmode sample-hold
attr source channelBusy
15	247440 10788 0 48179 0 297.493167666462 375 0 1 187 187
vector 2  LispSyncTest.xTR1.ethg$o[0].channel  busy:vector  ETV
attr interpolationmode sample-hold
attr source channelBusy
2	46264 3233 0 10553 0 118.843677799907 125 0 1 62 62
vector 8  LispSyncTest.xTR1.ethg$o[1].channel  busy:vector  ETV
attr interpolationmode sample-hold
attr source channelBusy
8	34906 7669 0 10604 0 118.843720239906 295 0 1 147 147
vector 16  LispSyncTest.xTR1.ethg$o[2].channel  busy:vector  ETV
attr interpolationmode sample-hold
attr source channelBusy
16	34486 208 0 1320 0 10.76687079616 9 0 1 4 4
vector 4  LispSyncTest.xTR2.ethg$o[0].channel  busy:vector  ETV
attr interpolationmode sample-hold
attr source channelBusy
4	74612 11413 0 37155 0 248.000042659997 413 0 1 206 206
vector 10  LispSyncTest.xTR2.ethg$o[1].channel  busy:vector  ETV
attr interpolationmode sample-hold
attr source channelBusy
10	139332 18046 0 48706 0 298.884552627644 629 0 1 314 314
vector 17  LispSyncTest.xTR2.ethg$o[2].channel  busy:vector  ETV
attr interpolationmode sample-hold
attr source channelBusy
17	34694 212 0 1194 0 9.637899284454 9 0 1 4 4
vector 1  LispSyncTest.MRMS.ethg$o[0].channel  busy:vector  ETV
attr interpolationmode sample-hold
attr source channelBusy
1	73505 1107 0 22767 0 180.00009754 43 0 1 21 21
vector 0  LispSyncTest.Core.ethg$o[0].channel  busy:vector  ETV
attr interpolationmode sample-hold
attr source channelBusy
0	72076 1429 0 34880 0 240.00017189 55 0 1 27 27
vector 5  LispSyncTest.Core.ethg$o[2].channel  busy:vector  ETV
attr interpolationmode sample-hold
attr source channelBusy
5	86025 10987 0 48691 0 298.884543457645 399 0 1 199 199
vector 6  LispSyncTest.Core.ethg$o[3].channel  busy:vector  ETV
attr interpolationmode sample-hold
attr source channelBusy
6	97012 21011 0 48759 0 299.323043799983 759 0 1 379 379
vector 7  LispSyncTest.xTR_Responder.ethg$o[0].channel  busy:vector  ETV
attr interpolationmode sample-hold
attr source channelBusy
7	118023 21309 0 48776 0 299.323054889983 773 0 1 386 386
vector 248  LispSyncTest.xTR1.LISP.lispMsgLogger  msg-size:vector  ETV
attr source sum(sigLispSizeSend)+sum(sigLispSizeRecv)
attr title "msg size, vector"
248	693112 2100 1 48854 0 300 75 201 6602 -1.#IND -1.#IND
vector 249  LispSyncTest.xTR1.LISP.lispMsgLogger  msg-sizesend:vector  ETV
attr source sum(sigLispSizeSend)
attr title "msg size send, vector"
249	695212 1126 1 48854 0 300 44 59 3932 77866 200507558
vector 300  LispSyncTest.xTR2.LISP.lispMsgLogger  msg-size:vector  ETV
attr source sum(sigLispSizeSend)+sum(sigLispSizeRecv)
attr title "msg size, vector"
300	834868 2750 7 37204 0 248.000051479997 94 201 12527 -1.#IND -1.#IND
vector 301  LispSyncTest.xTR2.LISP.lispMsgLogger  msg-sizesend:vector  ETV
attr source sum(sigLispSizeSend)
attr title "msg size send, vector"
301	837618 1808 7 37139 0 248.000032979998 65 59 9919 281863 1934124543
vector 199  LispSyncTest.xTR1.UDP  sentPk:vector(packetBytes)  ETV
attr interpolationmode none
attr source sentPk
attr title "packets sent, vector(packetBytes)"
199	576451 7386 21 48743 0 299.323020709984 250 47 294 23482 2358700
vector 251  LispSyncTest.xTR2.UDP  sentPk:vector(packetBytes)  ETV
attr interpolationmode none
attr source sentPk
attr title "packets sent, vector(packetBytes)"
251	697285 6950 23 37141 0 248.000032979998 234 47 294 26179 3743869
vector 204  LispSyncTest.xTR1.networkLayer.arp  sentReq:vector  ETV
attr title "ARP request sent, vector"
204	592802 211 29 42066 0 270.615322799871 9 1 1 9 9
vector 206  LispSyncTest.xTR1.networkLayer.arp  initiatedResolution:vector  ETV
attr title "ARP initiated resolutions, vector"
206	593013 177 29 42066 0 270.615322799871 7 1 1 7 7
vector 256  LispSyncTest.xTR2.networkLayer.arp  sentReq:vector  ETV
attr title "ARP request sent, vector"
256	716984 147 31 38135 0 253.095055790443 6 1 1 6 6
vector 258  LispSyncTest.xTR2.networkLayer.arp  initiatedResolution:vector  ETV
attr title "ARP initiated resolutions, vector"
258	717131 147 31 38135 0 253.095055790443 6 1 1 6 6
vector 218  LispSyncTest.xTR1.eth[0].encap  encapPk:vector(packetBytes)  ETV
attr interpolationmode none
attr source encapPk
attr title "packets encapsulated, vector(packetBytes)"
218	616685 7466 35 48747 0 299.323020709984 245 28 122 26404 2915776
vector 270  LispSyncTest.xTR2.eth[0].encap  encapPk:vector(packetBytes)  ETV
attr interpolationmode none
attr source encapPk
attr title "packets encapsulated, vector(packetBytes)"
270	742720 6292 36 37149 0 248.000032979998 206 28 122 22222 2448210
vector 214  LispSyncTest.xTR1.eth[0].mac  rxPkFromHL:vector(packetBytes)  ETV
attr interpolationmode none
attr source rxPkFromHL
attr title "packet bytes from higher layer, vector(packetBytes)"
214	609379 7306 37 48748 0 299.323020709984 236 64 140 30006 3853688
vector 266  LispSyncTest.xTR2.eth[0].mac  rxPkFromHL:vector(packetBytes)  ETV
attr interpolationmode none
attr source rxPkFromHL
attr title "packet bytes from higher layer, vector(packetBytes)"
266	736418 6302 38 37151 0 248.000032979998 206 64 140 26008 3323814
vector 209  LispSyncTest.xTR1.eth[0].mac  txPk:vector(packetBytes)  ETV
attr interpolationmode none
attr source txPk
attr title "packets transmitted, vector(packetBytes)"
209	593285 7396 41 48751 0.000006719999 299.323032709983 236 64 140 30006 3853688
vector 261  LispSyncTest.xTR2.eth[0].mac  txPk:vector(packetBytes)  ETV
attr interpolationmode none
attr source txPk
attr title "packets transmitted, vector(packetBytes)"
261	717356 6516 42 37173 0.000006719999 248.000042659997 206 64 140 26008 3323814
vector 353  LispSyncTest.Core.eth[1].mac  rxPkOk:vector(packetBytes)  ETV
attr interpolationmode none
attr source rxPkOk
attr title "packets received OK, vector(packetBytes)"
353	858909 7396 43 48752 0.000006769999 299.323032759983 236 64 140 30006 3853688
vector 354  LispSyncTest.Core.eth[1].mac  passedUpPk:vector(packetBytes)  ETV
attr interpolationmode none
attr source packetSentToUpper
attr title "packets passed to higher layer, vector(packetBytes)"
354	866305 7396 43 48752 0.000006769999 299.323032759983 236 64 140 30006 3853688
vector 365  LispSyncTest.Core.eth[2].mac  rxPkOk:vector(packetBytes)  ETV
attr interpolationmode none
attr source rxPkOk
attr title "packets received OK, vector(packetBytes)"
365	898495 6516 44 37175 0.000006769999 248.000042709997 206 64 140 26008 3323814
vector 366  LispSyncTest.Core.eth[2].mac  passedUpPk:vector(packetBytes)  ETV
attr interpolationmode none
attr source packetSentToUpper
attr title "packets passed to higher layer, vector(packetBytes)"
366	905011 6516 44 37175 0.000006769999 248.000042709997 206 64 140 26008 3323814
vector 362  LispSyncTest.Core.eth[1].encap  decapPk:vector(packetBytes)  ETV
attr interpolationmode none
attr source decapPk
attr title "packets decapsulated, vector(packetBytes)"
362	884832 7390 45 48753 0.000006769999 299.323032759983 236 28 122 25680 2843876
vector 374  LispSyncTest.Core.eth[2].encap  decapPk:vector(packetBytes)  ETV
attr interpolationmode none
attr source decapPk
attr title "packets decapsulated, vector(packetBytes)"
374	924067 6506 46 37177 0.000006769999 248.000042709997 206 28 122 22222 2448210
vector 361  LispSyncTest.Core.eth[1].encap  encapPk:vector(packetBytes)  ETV
attr interpolationmode none
attr source encapPk
attr title "packets encapsulated, vector(packetBytes)"
361	878050 6782 55 48785 0.000006769999 299.323054939983 216 28 112 21664 2324576
vector 373  LispSyncTest.Core.eth[2].encap  encapPk:vector(packetBytes)  ETV
attr interpolationmode none
attr source encapPk
attr title "packets encapsulated, vector(packetBytes)"
373	917800 6267 56 48690 0.000006769999 298.884532417645 199 28 112 21430 2351530
vector 357  LispSyncTest.Core.eth[1].mac  rxPkFromHL:vector(packetBytes)  ETV
attr interpolationmode none
attr source rxPkFromHL
attr title "packet bytes from higher layer, vector(packetBytes)"
357	873701 4349 57 48786 0.000006769999 299.323054939983 139 64 130 17160 2157484
vector 369  LispSyncTest.Core.eth[2].mac  rxPkFromHL:vector(packetBytes)  ETV
attr interpolationmode none
attr source rxPkFromHL
attr title "packet bytes from higher layer, vector(packetBytes)"
369	911527 6273 58 48691 0.000006769999 298.884532417645 199 64 130 25066 3193426
vector 352  LispSyncTest.Core.eth[1].mac  txPk:vector(packetBytes)  ETV
attr interpolationmode none
attr source txPk
attr title "packets transmitted, vector(packetBytes)"
352	854560 4349 59 48788 0.000012529999 299.323065979983 139 64 130 17160 2157484
vector 364  LispSyncTest.Core.eth[2].mac  txPk:vector(packetBytes)  ETV
attr interpolationmode none
attr source txPk
attr title "packets transmitted, vector(packetBytes)"
364	892222 6273 60 48693 0.000012529999 298.884543457645 199 64 130 25066 3193426
vector 210  LispSyncTest.xTR1.eth[0].mac  rxPkOk:vector(packetBytes)  ETV
attr interpolationmode none
attr source rxPkOk
attr title "packets received OK, vector(packetBytes)"
210	600681 4349 61 48789 0.000012579999 299.323066029983 139 64 130 17160 2157484
vector 211  LispSyncTest.xTR1.eth[0].mac  passedUpPk:vector(packetBytes)  ETV
attr interpolationmode none
attr source packetSentToUpper
attr title "packets passed to higher layer, vector(packetBytes)"
211	605030 4349 61 48789 0.000012579999 299.323066029983 139 64 130 17160 2157484
vector 262  LispSyncTest.xTR2.eth[0].mac  rxPkOk:vector(packetBytes)  ETV
attr interpolationmode none
attr source rxPkOk
attr title "packets received OK, vector(packetBytes)"
262	723872 6273 62 48694 0.000012579999 298.884543507645 199 64 130 25066 3193426
vector 263  LispSyncTest.xTR2.eth[0].mac  passedUpPk:vector(packetBytes)  ETV
attr interpolationmode none
attr source packetSentToUpper
attr title "packets passed to higher layer, vector(packetBytes)"
263	730145 6273 62 48694 0.000012579999 298.884543507645 199 64 130 25066 3193426
vector 219  LispSyncTest.xTR1.eth[0].encap  decapPk:vector(packetBytes)  ETV
attr interpolationmode none
attr source decapPk
attr title "packets decapsulated, vector(packetBytes)"
219	624151 4343 63 48790 0.000012579999 299.323066029983 139 28 112 14604 1580764
vector 271  LispSyncTest.xTR2.eth[0].encap  decapPk:vector(packetBytes)  ETV
attr interpolationmode none
attr source decapPk
attr title "packets decapsulated, vector(packetBytes)"
271	749012 6267 64 48695 0.000012579999 298.884543507645 199 28 112 21430 2351530
vector 252  LispSyncTest.xTR2.UDP  rcvdPk:vector(packetBytes)  ETV
attr interpolationmode none
attr source rcvdPk
attr title "packets received, vector(packetBytes)"
252	704235 6329 117 48698 0.000031719998 298.884543507645 207 39 294 19216 1951266
vector 253  LispSyncTest.xTR2.UDP  passedUpPk:vector(count)  ETV
attr interpolationmode none
attr title "packets passed up, vector(count)"
253	710564 6420 117 48698 0.000031719998 298.884543507645 207 1 207 21528 2978040
vector 200  LispSyncTest.xTR1.UDP  rcvdPk:vector(packetBytes)  ETV
attr interpolationmode none
attr source rcvdPk
attr title "packets received, vector(packetBytes)"
200	583837 4467 118 48793 0.000031719998 299.323066029983 147 39 294 13590 1429540
vector 201  LispSyncTest.xTR1.UDP  passedUpPk:vector(count)  ETV
attr interpolationmode none
attr title "packets passed up, vector(count)"
201	588304 4498 118 48793 0.000031719998 299.323066029983 147 1 147 10878 1069670
vector 302  LispSyncTest.xTR2.LISP.lispMsgLogger  msg-sizerecv:vector  ETV
attr source sum(sigLispSizeRecv)
attr title "msg size recieved, vector"
302	839426 900 119 37204 0.000031719998 248.000051479997 29 59 2608 33991 58187453
vector 250  LispSyncTest.xTR1.LISP.lispMsgLogger  msg-sizerecv:vector  ETV
attr source sum(sigLispSizeRecv)
attr title "msg size recieved, vector"
250	696338 947 120 37203 0.000031719998 248.000051479997 31 59 2670 34058 57330874
vector 208  LispSyncTest.xTR1.networkLayer6.neighbourDiscovery  startDAD:vector  ETV
attr title "DAD started, vector"
208	593207 78 253 253 0.107852370617 0.107852370617 3 1 1 3 3
vector 230  LispSyncTest.xTR1.eth[1].encap  encapPk:vector(packetBytes)  ETV
attr interpolationmode none
attr source encapPk
attr title "packets encapsulated, vector(packetBytes)"
230	663637 9147 261 48822 0.107852370617 299.65625 342 20 314 15278 1217800
vector 242  LispSyncTest.xTR1.eth[2].encap  encapPk:vector(packetBytes)  ETV
attr interpolationmode none
attr source encapPk
attr title "packets encapsulated, vector(packetBytes)"
242	681061 110 262 1318 0.107852370617 10.766864076161 4 40 40 160 6400
vector 226  LispSyncTest.xTR1.eth[1].mac  rxPkFromHL:vector(packetBytes)  ETV
attr interpolationmode none
attr source rxPkFromHL
attr title "packet bytes from higher layer, vector(packetBytes)"
226	654489 9148 264 48823 0.107852370617 299.65625 342 64 332 26872 2435068
vector 238  LispSyncTest.xTR1.eth[2].mac  rxPkFromHL:vector(packetBytes)  ETV
attr interpolationmode none
attr source rxPkFromHL
attr title "packet bytes from higher layer, vector(packetBytes)"
238	680951 110 265 1319 0.107852370617 10.766864076161 4 64 64 256 16384
vector 221  LispSyncTest.xTR1.eth[1].mac  txPk:vector(packetBytes)  ETV
attr interpolationmode none
attr source txPk
attr title "packets transmitted, vector(packetBytes)"
221	628494 10309 271 48826 0.107859090616 299.656256719999 342 64 332 26872 2435068
vector 233  LispSyncTest.xTR1.eth[2].mac  txPk:vector(packetBytes)  ETV
attr interpolationmode none
attr source txPk
attr title "packets transmitted, vector(packetBytes)"
233	680626 107 272 1321 0.107859090616 10.76687079616 4 64 64 256 16384
vector 286  LispSyncTest.xTR2.eth[2].mac  rxPkOk:vector(packetBytes)  ETV
attr interpolationmode none
attr source rxPkOk
attr title "packets received OK, vector(packetBytes)"
286	822037 107 274 1322 0.107859140616 10.76687084616 4 64 64 256 16384
vector 287  LispSyncTest.xTR2.eth[2].mac  passedUpPk:vector(packetBytes)  ETV
attr interpolationmode none
attr source packetSentToUpper
attr title "packets passed to higher layer, vector(packetBytes)"
287	822144 107 274 1322 0.107859140616 10.76687084616 4 64 64 256 16384
vector 22  LispSyncTest.SW.eth[0].mac  rxPkOk:vector(packetBytes)  ETV
attr interpolationmode none
attr source rxPkOk
attr title "packets received OK, vector(packetBytes)"
22	265813 9967 275 48827 0.107859140616 299.656256769999 342 64 332 26872 2435068
vector 23  LispSyncTest.SW.eth[0].mac  passedUpPk:vector(packetBytes)  ETV
attr interpolationmode none
attr source packetSentToUpper
attr title "packets passed to higher layer, vector(packetBytes)"
23	275780 9967 275 48827 0.107859140616 299.656256769999 342 64 332 26872 2435068
vector 295  LispSyncTest.xTR2.eth[2].encap  decapPk:vector(packetBytes)  ETV
attr interpolationmode none
attr source decapPk
attr title "packets decapsulated, vector(packetBytes)"
295	822469 107 277 1323 0.107859140616 10.76687084616 4 40 40 160 6400
vector 476  LispSyncTest.SW.relayUnit  "buffer level"  ETV
476	1135031 65015 278 48829 0.107859140616 299.656256769999 2166 0 332 99177 10885451
vector 37  LispSyncTest.SW.eth[1].mac  rxPkFromHL:vector(packetBytes)  ETV
attr interpolationmode none
attr source rxPkFromHL
attr title "packet bytes from higher layer, vector(packetBytes)"
37	324214 12150 283 48830 0.107859140616 299.656256769999 415 64 332 33314 3013736
vector 48  LispSyncTest.SW.eth[2].mac  rxPkFromHL:vector(packetBytes)  ETV
attr interpolationmode none
attr source rxPkFromHL
attr title "packet bytes from higher layer, vector(packetBytes)"
48	364933 14411 284 48831 0.107859140616 299.656256769999 492 64 94 36618 2825772
vector 59  LispSyncTest.SW.eth[3].mac  rxPkFromHL:vector(packetBytes)  ETV
attr interpolationmode none
attr source rxPkFromHL
attr title "packet bytes from higher layer, vector(packetBytes)"
59	403466 12970 285 48832 0.107859140616 299.656256769999 442 64 94 31978 2393452
vector 32  LispSyncTest.SW.eth[1].mac  txPk:vector(packetBytes)  ETV
attr interpolationmode none
attr source txPk
attr title "packets transmitted, vector(packetBytes)"
32	293332 12150 287 48834 0.107864900616 299.656262529999 415 64 332 33314 3013736
vector 43  LispSyncTest.SW.eth[2].mac  txPk:vector(packetBytes)  ETV
attr interpolationmode none
attr source txPk
attr title "packets transmitted, vector(packetBytes)"
43	336364 14411 288 48835 0.107864900616 299.656262529999 492 64 94 36618 2825772
vector 54  LispSyncTest.SW.eth[3].mac  txPk:vector(packetBytes)  ETV
attr interpolationmode none
attr source txPk
attr title "packets transmitted, vector(packetBytes)"
54	379344 12970 289 48836 0.107864900616 299.656262529999 442 64 94 31978 2393452
vector 274  LispSyncTest.xTR2.eth[1].mac  rxPkOk:vector(packetBytes)  ETV
attr interpolationmode none
attr source rxPkOk
attr title "packets received OK, vector(packetBytes)"
274	764959 12565 290 48837 0.107864950616 299.656262579999 415 64 332 33314 3013736
vector 275  LispSyncTest.xTR2.eth[1].mac  passedUpPk:vector(packetBytes)  ETV
attr interpolationmode none
attr source packetSentToUpper
attr title "packets passed to higher layer, vector(packetBytes)"
275	777524 12565 290 48837 0.107864950616 299.656262579999 415 64 332 33314 3013736
vector 121  LispSyncTest.Host1.eth[0].mac  rxPkOk:vector(packetBytes)  ETV
attr interpolationmode none
attr source rxPkOk
attr title "packets received OK, vector(packetBytes)"
121	443947 14903 291 48838 0.107864950616 299.656262579999 492 64 94 36618 2825772
vector 122  LispSyncTest.Host1.eth[0].mac  passedUpPk:vector(packetBytes)  ETV
attr interpolationmode none
attr source packetSentToUpper
attr title "packets passed to higher layer, vector(packetBytes)"
122	458850 14903 291 48838 0.107864950616 299.656262579999 492 64 94 36618 2825772
vector 188  LispSyncTest.Host2.eth[0].mac  rxPkOk:vector(packetBytes)  ETV
attr interpolationmode none
attr source rxPkOk
attr title "packets received OK, vector(packetBytes)"
188	524689 13412 292 48839 0.107864950616 299.656262579999 442 64 94 31978 2393452
vector 189  LispSyncTest.Host2.eth[0].mac  passedUpPk:vector(packetBytes)  ETV
attr interpolationmode none
attr source packetSentToUpper
attr title "packets passed to higher layer, vector(packetBytes)"
189	538101 13412 292 48839 0.107864950616 299.656262579999 442 64 94 31978 2393452
vector 283  LispSyncTest.xTR2.eth[1].encap  decapPk:vector(packetBytes)  ETV
attr interpolationmode none
attr source decapPk
attr title "packets decapsulated, vector(packetBytes)"
283	809364 12564 293 48840 0.107864950616 299.656262579999 415 20 314 20250 1576088
vector 130  LispSyncTest.Host1.eth[0].encap  decapPk:vector(packetBytes)  ETV
attr interpolationmode none
attr source decapPk
attr title "packets decapsulated, vector(packetBytes)"
130	488391 14903 294 48841 0.107864950616 299.656262579999 492 20 76 19800 1137408
vector 197  LispSyncTest.Host2.eth[0].encap  decapPk:vector(packetBytes)  ETV
attr interpolationmode none
attr source decapPk
attr title "packets decapsulated, vector(packetBytes)"
197	563039 13412 295 48842 0.107864950616 299.656262579999 442 20 76 16096 858592
vector 312  LispSyncTest.MRMS.networkLayer6.neighbourDiscovery  startDAD:vector  ETV
attr title "DAD started, vector"
312	842248 26 305 305 0.131109585799 0.131109585799 1 1 1 1 1
vector 322  LispSyncTest.MRMS.eth[0].encap  encapPk:vector(packetBytes)  ETV
attr interpolationmode none
attr source encapPk
attr title "packets encapsulated, vector(packetBytes)"
322	845138 612 308 22766 0.131109585799 180.00009178 21 28 71 1113 61743
vector 318  LispSyncTest.MRMS.eth[0].mac  rxPkFromHL:vector(packetBytes)  ETV
attr interpolationmode none
attr source rxPkFromHL
attr title "packet bytes from higher layer, vector(packetBytes)"
318	844526 612 309 22767 0.131109585799 180.00009178 21 64 89 1551 115503
vector 313  LispSyncTest.MRMS.eth[0].mac  txPk:vector(packetBytes)  ETV
attr interpolationmode none
attr source txPk
attr title "packets transmitted, vector(packetBytes)"
313	842274 612 310 22769 0.131115345799 180.00009754 21 64 89 1551 115503
vector 341  LispSyncTest.Core.eth[0].mac  rxPkOk:vector(packetBytes)  ETV
attr interpolationmode none
attr source rxPkOk
attr title "packets received OK, vector(packetBytes)"
341	851084 612 311 22770 0.131115395799 180.00009759 21 64 89 1551 115503
vector 342  LispSyncTest.Core.eth[0].mac  passedUpPk:vector(packetBytes)  ETV
attr interpolationmode none
attr source packetSentToUpper
attr title "packets passed to higher layer, vector(packetBytes)"
342	851696 612 311 22770 0.131115395799 180.00009759 21 64 89 1551 115503
vector 350  LispSyncTest.Core.eth[0].encap  decapPk:vector(packetBytes)  ETV
attr interpolationmode none
attr source decapPk
attr title "packets decapsulated, vector(packetBytes)"
350	853948 612 312 22771 0.131115395799 180.00009759 21 28 71 1113 61743
vector 260  LispSyncTest.xTR2.networkLayer6.neighbourDiscovery  startDAD:vector  ETV
attr title "DAD started, vector"
260	717278 78 315 315 0.183919038553 0.183919038553 3 1 1 3 3
vector 282  LispSyncTest.xTR2.eth[1].encap  encapPk:vector(packetBytes)  ETV
attr interpolationmode none
attr source encapPk
attr title "packets encapsulated, vector(packetBytes)"
282	799727 9637 323 48703 0.183919038553 298.884543507645 314 20 314 24573 3521571
vector 294  LispSyncTest.xTR2.eth[2].encap  encapPk:vector(packetBytes)  ETV
attr interpolationmode none
attr source encapPk
attr title "packets encapsulated, vector(packetBytes)"
294	822360 109 324 1192 0.183919038553 9.637892564455 4 40 40 160 6400
vector 278  LispSyncTest.xTR2.eth[1].mac  rxPkFromHL:vector(packetBytes)  ETV
attr interpolationmode none
attr source rxPkFromHL
attr title "packet bytes from higher layer, vector(packetBytes)"
278	790089 9638 326 48704 0.183919038553 298.884543507645 314 64 332 32707 4762731
vector 290  LispSyncTest.xTR2.eth[2].mac  rxPkFromHL:vector(packetBytes)  ETV
attr interpolationmode none
attr source rxPkFromHL
attr title "packet bytes from higher layer, vector(packetBytes)"
290	822251 109 327 1193 0.183919038553 9.637892564455 4 64 64 256 16384
vector 273  LispSyncTest.xTR2.eth[1].mac  txPk:vector(packetBytes)  ETV
attr interpolationmode none
attr source txPk
attr title "packets transmitted, vector(packetBytes)"
273	755279 9680 333 48708 0.183925758552 298.884552627644 314 64 332 32707 4762731
vector 285  LispSyncTest.xTR2.eth[2].mac  txPk:vector(packetBytes)  ETV
attr interpolationmode none
attr source txPk
attr title "packets transmitted, vector(packetBytes)"
285	821928 109 334 1195 0.183925758552 9.637899284454 4 64 64 256 16384
vector 234  LispSyncTest.xTR1.eth[2].mac  rxPkOk:vector(packetBytes)  ETV
attr interpolationmode none
attr source rxPkOk
attr title "packets received OK, vector(packetBytes)"
234	680733 109 336 1196 0.183925808552 9.637899334454 4 64 64 256 16384
vector 235  LispSyncTest.xTR1.eth[2].mac  passedUpPk:vector(packetBytes)  ETV
attr interpolationmode none
attr source packetSentToUpper
attr title "packets passed to higher layer, vector(packetBytes)"
235	680842 109 336 1196 0.183925808552 9.637899334454 4 64 64 256 16384
vector 33  LispSyncTest.SW.eth[1].mac  rxPkOk:vector(packetBytes)  ETV
attr interpolationmode none
attr source rxPkOk
attr title "packets received OK, vector(packetBytes)"
33	305482 9366 337 48709 0.183925808552 298.884552677644 314 64 332 32707 4762731
vector 34  LispSyncTest.SW.eth[1].mac  passedUpPk:vector(packetBytes)  ETV
attr interpolationmode none
attr source packetSentToUpper
attr title "packets passed to higher layer, vector(packetBytes)"
34	314848 9366 337 48709 0.183925808552 298.884552677644 314 64 332 32707 4762731
vector 243  LispSyncTest.xTR1.eth[2].encap  decapPk:vector(packetBytes)  ETV
attr interpolationmode none
attr source decapPk
attr title "packets decapsulated, vector(packetBytes)"
243	681171 109 339 1197 0.183925808552 9.637899334454 4 40 40 160 6400
vector 26  LispSyncTest.SW.eth[0].mac  rxPkFromHL:vector(packetBytes)  ETV
attr interpolationmode none
attr source rxPkFromHL
attr title "packet bytes from higher layer, vector(packetBytes)"
26	285747 7585 345 48734 0.183925808552 299.323012499984 258 64 332 24466 2560264
vector 21  LispSyncTest.SW.eth[0].mac  txPk:vector(packetBytes)  ETV
attr interpolationmode none
attr source txPk
attr title "packets transmitted, vector(packetBytes)"
21	258228 7585 349 48737 0.183931568552 299.323020659984 258 64 332 24466 2560264
vector 222  LispSyncTest.xTR1.eth[1].mac  rxPkOk:vector(packetBytes)  ETV
attr interpolationmode none
attr source rxPkOk
attr title "packets received OK, vector(packetBytes)"
222	638803 7843 352 48738 0.183931618552 299.323020709984 258 64 332 24466 2560264
vector 223  LispSyncTest.xTR1.eth[1].mac  passedUpPk:vector(packetBytes)  ETV
attr interpolationmode none
attr source packetSentToUpper
attr title "packets passed to higher layer, vector(packetBytes)"
223	646646 7843 352 48738 0.183931618552 299.323020709984 258 64 332 24466 2560264
vector 231  LispSyncTest.xTR1.eth[1].encap  decapPk:vector(packetBytes)  ETV
attr interpolationmode none
attr source decapPk
attr title "packets decapsulated, vector(packetBytes)"
231	672784 7842 355 48739 0.183931618552 299.323020709984 258 20 314 19294 1725640
vector 397  LispSyncTest.xTR_Responder.networkLayer6.neighbourDiscovery  startDAD:vector  ETV
attr title "DAD started, vector"
397	1038342 26 367 367 0.270704573462 0.270704573462 1 1 1 1 1
vector 407  LispSyncTest.xTR_Responder.eth[0].encap  encapPk:vector(packetBytes)  ETV
attr interpolationmode none
attr source encapPk
attr title "packets encapsulated, vector(packetBytes)"
407	1086780 12174 370 48775 0.270704573462 299.323043849983 386 28 1048 46515 9116633
vector 403  LispSyncTest.xTR_Responder.eth[0].mac  rxPkFromHL:vector(packetBytes)  ETV
attr interpolationmode none
attr source rxPkFromHL
attr title "packet bytes from higher layer, vector(packetBytes)"
403	1074606 12174 371 48776 0.270704573462 299.323043849983 386 64 1066 53523 10923125
vector 398  LispSyncTest.xTR_Responder.eth[0].mac  txPk:vector(packetBytes)  ETV
attr interpolationmode none
attr source txPk
attr title "packets transmitted, vector(packetBytes)"
398	1038368 12210 372 48778 0.270710333462 299.323054889983 386 64 1066 53523 10923125
vector 377  LispSyncTest.Core.eth[3].mac  rxPkOk:vector(packetBytes)  ETV
attr interpolationmode none
attr source rxPkOk
attr title "packets received OK, vector(packetBytes)"
377	942587 12210 373 48779 0.270710383462 299.323054939983 386 64 1066 53523 10923125
vector 378  LispSyncTest.Core.eth[3].mac  passedUpPk:vector(packetBytes)  ETV
attr interpolationmode none
attr source packetSentToUpper
attr title "packets passed to higher layer, vector(packetBytes)"
378	954797 12210 373 48779 0.270710383462 299.323054939983 386 64 1066 53523 10923125
vector 386  LispSyncTest.Core.eth[3].encap  decapPk:vector(packetBytes)  ETV
attr interpolationmode none
attr source decapPk
attr title "packets decapsulated, vector(packetBytes)"
386	991035 12210 374 48780 0.270710383462 299.323054939983 386 28 1048 46515 9116633
vector 186  LispSyncTest.Host2.networkLayer6.neighbourDiscovery  startDAD:vector  ETV
attr title "DAD started, vector"
186	518900 26 377 377 0.669969993736 0.669969993736 1 1 1 1 1
vector 196  LispSyncTest.Host2.eth[0].encap  encapPk:vector(packetBytes)  ETV
attr interpolationmode none
attr source encapPk
attr title "packets encapsulated, vector(packetBytes)"
196	557276 5763 380 48178 0.669969993736 297.493159506462 187 28 76 13780 1033456
vector 192  LispSyncTest.Host2.eth[0].mac  rxPkFromHL:vector(packetBytes)  ETV
attr interpolationmode none
attr source rxPkFromHL
attr title "packet bytes from higher layer, vector(packetBytes)"
192	551513 5763 381 48179 0.669969993736 297.493159506462 187 64 94 17278 1604932
vector 187  LispSyncTest.Host2.eth[0].mac  txPk:vector(packetBytes)  ETV
attr interpolationmode none
attr source txPk
attr title "packets transmitted, vector(packetBytes)"
187	518926 5763 383 48181 0.669975753736 297.493167666462 187 64 94 17278 1604932
vector 55  LispSyncTest.SW.eth[3].mac  rxPkOk:vector(packetBytes)  ETV
attr interpolationmode none
attr source rxPkOk
attr title "packets received OK, vector(packetBytes)"
55	392314 5576 384 48182 0.669975803736 297.493167716462 187 64 94 17278 1604932
vector 56  LispSyncTest.SW.eth[3].mac  passedUpPk:vector(packetBytes)  ETV
attr interpolationmode none
attr source packetSentToUpper
attr title "packets passed to higher layer, vector(packetBytes)"
56	397890 5576 384 48182 0.669975803736 297.493167716462 187 64 94 17278 1604932
vector 119  LispSyncTest.Host1.networkLayer6.neighbourDiscovery  startDAD:vector  ETV
attr title "DAD started, vector"