file 1211248 1424173231                                         
version 2
run General-0-20150217-11:40:31-3656
attr configname General
attr datetime 20150217-11:40:31
attr experiment General
attr inifile omnetpp.ini
attr iterationvars ""
attr iterationvars2 $repetition=0
attr measurement ""
attr network LispSyncTest
attr processid 3656
attr repetition 0
attr replication #0
attr resultdir results
attr runnumber 0
attr seedset 0
vector 9  LispSyncTest.SW.ethg$o[0].channel  busy:vector  ETV
attr interpolationmode sample-hold
attr source channelBusy
9	42105 3277 0 10212 0 118.692410344398 127 0 1 63 63
vector 11  LispSyncTest.SW.ethg$o[1].channel  busy:vector  ETV
attr interpolationmode sample-hold
attr source channelBusy
11	150289 24704 0 47835 0 299.578137529999 873 0 1 436 436
vector 12  LispSyncTest.SW.ethg$o[2].channel  busy:vector  ETV
attr interpolationmode sample-hold
attr source channelBusy
12	174993 26574 0 47836 0 299.578137529999 941 0 1 470 470
vector 14  LispSyncTest.SW.ethg$o[3].channel  busy:vector  ETV
attr interpolationmode sample-hold
attr source channelBusy
14	215081 24490 0 47837 0 299.578137529999 865 0 1 432 432
vector 13  LispSyncTest.Host1.ethg$o[0].channel  busy:vector  ETV
attr interpolationmode sample-hold
attr source channelBusy
13	201567 13514 0 47696 0 298.259913474063 475 0 1 237 237
vector 15  LispSyncTest.Host2.ethg$o[0].channel  busy:vector  ETV
attr interpolationmode sample-hold
attr source channelBusy
15	239571 10854 0 47601 0 298.051381617063 377 0 1 188 188
vector 2  LispSyncTest.xTR1.ethg$o[0].channel  busy:vector  ETV
attr interpolationmode sample-hold
attr source channelBusy
2	45382 3287 0 10228 0 118.692422394397 127 0 1 63 63
vector 8  LispSyncTest.xTR1.ethg$o[1].channel  busy:vector  ETV
attr interpolationmode sample-hold
attr source channelBusy
8	34686 7419 0 10279 0 118.692464834396 285 0 1 142 142
vector 16  LispSyncTest.xTR1.ethg$o[2].channel  busy:vector  ETV
attr interpolationmode sample-hold
attr source channelBusy
16	34266 208 0 1320 0 10.76687079616 9 0 1 4 4
vector 4  LispSyncTest.xTR2.ethg$o[0].channel  busy:vector  ETV
attr interpolationmode sample-hold
attr source channelBusy
4	63051 14781 0 36136 0 248.000042659997 533 0 1 266 266
vector 10  LispSyncTest.xTR2.ethg$o[1].channel  busy:vector  ETV
attr interpolationmode sample-hold
attr source channelBusy
10	131867 18422 0 47447 0 297.468014858971 641 0 1 320 320
vector 17  LispSyncTest.xTR2.ethg$o[2].channel  busy:vector  ETV
attr interpolationmode sample-hold
attr source channelBusy
17	34474 212 0 1194 0 9.637899284454 9 0 1 4 4
vector 1  LispSyncTest.MRMS.ethg$o[0].channel  busy:vector  ETV
attr interpolationmode sample-hold
attr source channelBusy
1	60716 2335 0 35933 0 247.263191692301 87 0 1 43 43
vector 0  LispSyncTest.Core.ethg$o[0].channel  busy:vector  ETV
attr interpolationmode sample-hold
attr source channelBusy
0	58059 2657 0 35920 0 247.263184842301 99 0 1 49 49
vector 5  LispSyncTest.Core.ethg$o[2].channel  busy:vector  ETV
attr interpolationmode sample-hold
attr source channelBusy
5	77832 12349 0 47432 0 297.468005688972 447 0 1 223 223
vector 6  LispSyncTest.Core.ethg$o[3].channel  busy:vector  ETV
attr interpolationmode sample-hold
attr source channelBusy
6	90181 20695 0 47727 0 298.259944824062 747 0 1 373 373
vector 7  LispSyncTest.xTR_Responder.ethg$o[0].channel  busy:vector  ETV
attr interpolationmode sample-hold
attr source channelBusy
7	110876 20991 0 47744 0 298.259955914062 761 0 1 380 380
vector 248  LispSyncTest.xTR1.LISP.lispMsgLogger  msg-size:vector  ETV
attr source sum(sigLispSizeSend)+sum(sigLispSizeRecv)
attr title "msg, vector"
248	642489 2330 1 47859 0 300 81 201 4458 -1.#IND -1.#IND
vector 249  LispSyncTest.xTR1.LISP.lispMsgLogger  msg-sizesend:vector  ETV
attr source sum(sigLispSizeSend)
attr title "msg size send, vector"
249	644819 1241 1 47859 0 300 47 59 3056 73400 151986678
vector 300  LispSyncTest.xTR2.LISP.lispMsgLogger  msg-size:vector  ETV
attr source sum(sigLispSizeSend)+sum(sigLispSizeRecv)
attr title "msg, vector"
300	798653 1815 7 36185 0 248.000051479997 64 201 3644 -1.#IND -1.#IND
vector 301  LispSyncTest.xTR2.LISP.lispMsgLogger  msg-sizesend:vector  ETV
attr source sum(sigLispSizeSend)
attr title "msg size send, vector"
301	800468 973 7 36120 0 248.000032979998 38 59 2490 48321 80852077
vector 199  LispSyncTest.xTR1.UDP  sentPk:vector(packetBytes)  ETV
attr interpolationmode none
attr source sentPk
attr title "packets sent, vector(packetBytes)"
199	554436 5693 21 47711 0 298.259921734063 195 51 102 17742 1627474
vector 251  LispSyncTest.xTR2.UDP  sentPk:vector(packetBytes)  ETV
attr interpolationmode none
attr source sentPk
attr title "packets sent, vector(packetBytes)"
251	647115 7746 23 36122 0 248.000032979998 259 51 102 23574 2158474
vector 204  LispSyncTest.xTR1.networkLayer.arp  sentReq:vector  ETV
attr title "ARP request sent, vector"
204	566539 225 29 33673 0 236.590604837808 12 1 1 12 12
vector 206  LispSyncTest.xTR1.networkLayer.arp  initiatedResolution:vector  ETV
attr title "ARP initiated resolutions, vector"
206	566764 123 29 33673 0 236.590604837808 6 1 1 6 6
vector 256  LispSyncTest.xTR2.networkLayer.arp  sentReq:vector  ETV
attr title "ARP request sent, vector"
256	668475 147 31 36263 0 248.563775251912 6 1 1 6 6
vector 258  LispSyncTest.xTR2.networkLayer.arp  initiatedResolution:vector  ETV
attr title "ARP initiated resolutions, vector"
258	668622 147 31 36263 0 248.563775251912 6 1 1 6 6
vector 218  LispSyncTest.xTR1.eth[0].encap  encapPk:vector(packetBytes)  ETV
attr interpolationmode none
attr source encapPk
attr title "packets encapsulated, vector(packetBytes)"
218	585536 6046 35 47715 0 298.259921734063 201 28 122 21196 2335734
vector 270  LispSyncTest.xTR2.eth[0].encap  encapPk:vector(packetBytes)  ETV
attr interpolationmode none
attr source encapPk
attr title "packets encapsulated, vector(packetBytes)"
270	699589 8208 36 36130 0 248.000032979998 266 28 122 28998 3213786
vector 214  LispSyncTest.xTR1.eth[0].mac  rxPkFromHL:vector(packetBytes)  ETV
attr interpolationmode none
attr source rxPkFromHL
attr title "packet bytes from higher layer, vector(packetBytes)"
214	579665 5871 37 47716 0 298.259921734063 191 64 140 24320 3132158
vector 266  LispSyncTest.xTR2.eth[0].mac  rxPkFromHL:vector(packetBytes)  ETV
attr interpolationmode none
attr source rxPkFromHL
attr title "packet bytes from higher layer, vector(packetBytes)"
266	691371 8218 38 36132 0 248.000032979998 266 64 140 33864 4352766
vector 209  LispSyncTest.xTR1.eth[0].mac  txPk:vector(packetBytes)  ETV
attr interpolationmode none
attr source txPk
attr title "packets transmitted, vector(packetBytes)"
209	567016 5961 41 47719 0.000006719999 298.259933734062 191 64 140 24320 3132158
vector 261  LispSyncTest.xTR2.eth[0].mac  txPk:vector(packetBytes)  ETV
attr interpolationmode none
attr source txPk
attr title "packets transmitted, vector(packetBytes)"
261	668847 8440 42 36154 0.000006719999 248.000042659997 266 64 140 33864 4352766
vector 353  LispSyncTest.Core.eth[1].mac  rxPkOk:vector(packetBytes)  ETV
attr interpolationmode none
attr source rxPkOk
attr title "packets received OK, vector(packetBytes)"
353	836347 5961 43 47720 0.000006769999 298.259933784062 191 64 140 24320 3132158
vector 354  LispSyncTest.Core.eth[1].mac  passedUpPk:vector(packetBytes)  ETV
attr interpolationmode none
attr source packetSentToUpper
attr title "packets passed to higher layer, vector(packetBytes)"
354	842308 5961 43 47720 0.000006769999 298.259933784062 191 64 140 24320 3132158
vector 365  LispSyncTest.Core.eth[2].mac  rxPkOk:vector(packetBytes)  ETV
attr interpolationmode none
attr source rxPkOk
attr title "packets received OK, vector(packetBytes)"
365	870546 8440 44 36156 0.000006769999 248.000042709997 266 64 140 33864 4352766
vector 366  LispSyncTest.Core.eth[2].mac  passedUpPk:vector(packetBytes)  ETV
attr interpolationmode none
attr source packetSentToUpper
attr title "packets passed to higher layer, vector(packetBytes)"
366	878986 8440 44 36156 0.000006769999 248.000042709997 266 64 140 33864 4352766
vector 362  LispSyncTest.Core.eth[1].encap  decapPk:vector(packetBytes)  ETV
attr interpolationmode none
attr source decapPk
attr title "packets decapsulated, vector(packetBytes)"
362	857549 5955 45 47721 0.000006769999 298.259933784062 191 28 122 20822 2313794
vector 374  LispSyncTest.Core.eth[2].encap  decapPk:vector(packetBytes)  ETV
attr interpolationmode none
attr source decapPk
attr title "packets decapsulated, vector(packetBytes)"
374	901504 8430 46 36158 0.000006769999 248.000042709997 266 28 122 28998 3213786
vector 361  LispSyncTest.Core.eth[1].encap  encapPk:vector(packetBytes)  ETV
attr interpolationmode none
attr source encapPk
attr title "packets encapsulated, vector(packetBytes)"
361	851613 5936 55 47753 0.000006769999 298.259955964062 192 28 112 12826 1142634
vector 373  LispSyncTest.Core.eth[2].encap  encapPk:vector(packetBytes)  ETV
attr interpolationmode none
attr source encapPk
attr title "packets encapsulated, vector(packetBytes)"
373	894468 7036 56 47431 0.000006769999 297.467994648972 223 28 112 23694 2580082
vector 357  LispSyncTest.Core.eth[1].mac  rxPkFromHL:vector(packetBytes)  ETV
attr interpolationmode none
attr source rxPkFromHL
attr title "packet bytes from higher layer, vector(packetBytes)"
357	848269 3344 57 47754 0.000006769999 298.259955964062 108 64 130 12454 1492794
vector 369  LispSyncTest.Core.eth[2].mac  rxPkFromHL:vector(packetBytes)  ETV
attr interpolationmode none
attr source rxPkFromHL
attr title "packet bytes from higher layer, vector(packetBytes)"
369	887426 7042 58 47432 0.000006769999 297.467994648972 223 64 130 27762 3511258
vector 352  LispSyncTest.Core.eth[1].mac  txPk:vector(packetBytes)  ETV
attr interpolationmode none
attr source txPk
attr title "packets transmitted, vector(packetBytes)"
352	833003 3344 59 47756 0.000012529999 298.259967004062 108 64 130 12454 1492794
vector 364  LispSyncTest.Core.eth[2].mac  txPk:vector(packetBytes)  ETV
attr interpolationmode none
attr source txPk
attr title "packets transmitted, vector(packetBytes)"
364	863504 7042 60 47434 0.000012529999 297.468005688972 223 64 130 27762 3511258
vector 210  LispSyncTest.xTR1.eth[0].mac  rxPkOk:vector(packetBytes)  ETV
attr interpolationmode none
attr source rxPkOk
attr title "packets received OK, vector(packetBytes)"
210	572977 3344 61 47757 0.000012579999 298.259967054062 108 64 130 12454 1492794
vector 211  LispSyncTest.xTR1.eth[0].mac  passedUpPk:vector(packetBytes)  ETV
attr interpolationmode none
attr source packetSentToUpper
attr title "packets passed to higher layer, vector(packetBytes)"
211	576321 3344 61 47757 0.000012579999 298.259967054062 108 64 130 12454 1492794
vector 262  LispSyncTest.xTR2.eth[0].mac  rxPkOk:vector(packetBytes)  ETV
attr interpolationmode none
attr source rxPkOk
attr title "packets received OK, vector(packetBytes)"
262	677287 7042 62 47435 0.000012579999 297.468005738972 223 64 130 27762 3511258
vector 263  LispSyncTest.xTR2.eth[0].mac  passedUpPk:vector(packetBytes)  ETV
attr interpolationmode none
attr source packetSentToUpper
attr title "packets passed to higher layer, vector(packetBytes)"
263	684329 7042 62 47435 0.000012579999 297.468005738972 223 64 130 27762 3511258
vector 219  LispSyncTest.xTR1.eth[0].encap  decapPk:vector(packetBytes)  ETV
attr interpolationmode none
attr source decapPk
attr title "packets decapsulated, vector(packetBytes)"
219	591582 3338 63 47758 0.000012579999 298.259967054062 108 28 112 10474 1076778
vector 271  LispSyncTest.xTR2.eth[0].encap  decapPk:vector(packetBytes)  ETV
attr interpolationmode none
attr source decapPk
attr title "packets decapsulated, vector(packetBytes)"
271	707797 7036 64 47436 0.000012579999 297.468005738972 223 28 112 23694 2580082
vector 252  LispSyncTest.xTR2.UDP  rcvdPk:vector(packetBytes)  ETV
attr interpolationmode none
attr source rcvdPk
attr title "packets received, vector(packetBytes)"
252	654861 6751 117 47439 0.000031719998 297.468005738972 220 39 92 19210 1721330
vector 253  LispSyncTest.xTR2.UDP  passedUpPk:vector(count)  ETV
attr interpolationmode none
attr title "packets passed up, vector(count)"
253	661612 6863 117 47439 0.000031719998 297.468005738972 220 1 220 24310 3573570
vector 200  LispSyncTest.xTR1.UDP  rcvdPk:vector(packetBytes)  ETV
attr interpolationmode none
attr source rcvdPk
attr title "packets received, vector(packetBytes)"
200	560129 3206 118 47761 0.000031719998 298.259967054062 106 39 92 8298 700890
vector 201  LispSyncTest.xTR1.UDP  passedUpPk:vector(count)  ETV
attr interpolationmode none
attr title "packets passed up, vector(count)"
201	563335 3204 118 47761 0.000031719998 298.259967054062 106 1 106 5671 402641
vector 302  LispSyncTest.xTR2.LISP.lispMsgLogger  msg-sizerecv:vector  ETV
attr source sum(sigLispSizeRecv)
attr title "msg size recieved, vector"
302	801441 810 119 36185 0.000031719998 248.000051479997 26 59 1154 16469 12689017
vector 250  LispSyncTest.xTR1.LISP.lispMsgLogger  msg-sizerecv:vector  ETV
attr source sum(sigLispSizeRecv)
attr title "msg size recieved, vector"
250	646060 1055 120 36184 0.000031719998 248.000051479997 34 59 1402 25889 23978165
vector 208  LispSyncTest.xTR1.networkLayer6.neighbourDiscovery  startDAD:vector  ETV
attr title "DAD started, vector"
208	566938 78 253 253 0.107852370617 0.107852370617 3 1 1 3 3
vector 230  LispSyncTest.xTR1.eth[1].encap  encapPk:vector(packetBytes)  ETV
attr interpolationmode none
attr source encapPk
attr title "packets encapsulated, vector(packetBytes)"
230	621084 6786 261 47827 0.107852370617 299.578125 259 20 76 9332 497392
vector 242  LispSyncTest.xTR1.eth[2].encap  encapPk:vector(packetBytes)  ETV
attr interpolationmode none
attr source encapPk
attr title "packets encapsulated, vector(packetBytes)"
242	634117 110 262 1318 0.107852370617 10.766864076161 4 40 40 160 6400
vector 226  LispSyncTest.xTR1.eth[1].mac  rxPkFromHL:vector(packetBytes)  ETV
attr interpolationmode none
attr source rxPkFromHL
attr title "packet bytes from higher layer, vector(packetBytes)"
226	614298 6786 264 47828 0.107852370617 299.578125 259 64 94 18736 1402144
vector 238  LispSyncTest.xTR1.eth[2].mac  rxPkFromHL:vector(packetBytes)  ETV
attr interpolationmode none
attr source rxPkFromHL
attr title "packet bytes from higher layer, vector(packetBytes)"
238	634007 110 265 1319 0.107852370617 10.766864076161 4 64 64 256 16384
vector 221  LispSyncTest.xTR1.eth[1].mac  txPk:vector(packetBytes)  ETV
attr interpolationmode none
attr source txPk
attr title "packets transmitted, vector(packetBytes)"
221	594920 7754 271 47831 0.107859090616 299.578131719999 259 64 94 18736 1402144
vector 233  LispSyncTest.xTR1.eth[2].mac  txPk:vector(packetBytes)  ETV
attr interpolationmode none
attr source txPk
attr title "packets transmitted, vector(packetBytes)"
233	633682 107 272 1321 0.107859090616 10.76687079616 4 64 64 256 16384
vector 286  LispSyncTest.xTR2.eth[2].mac  rxPkOk:vector(packetBytes)  ETV
attr interpolationmode none
attr source rxPkOk
attr title "packets received OK, vector(packetBytes)"
286	784161 107 274 1322 0.107859140616 10.76687084616 4 64 64 256 16384
vector 287  LispSyncTest.xTR2.eth[2].mac  passedUpPk:vector(packetBytes)  ETV
attr interpolationmode none
attr source packetSentToUpper
attr title "packets passed to higher layer, vector(packetBytes)"
287	784268 107 274 1322 0.107859140616 10.76687084616 4 64 64 256 16384
vector 22  LispSyncTest.SW.eth[0].mac  rxPkOk:vector(packetBytes)  ETV
attr interpolationmode none
attr source rxPkOk
attr title "packets received OK, vector(packetBytes)"
22	256045 7495 275 47832 0.107859140616 299.578131769999 259 64 94 18736 1402144
vector 23  LispSyncTest.SW.eth[0].mac  passedUpPk:vector(packetBytes)  ETV
attr interpolationmode none
attr source packetSentToUpper
attr title "packets passed to higher layer, vector(packetBytes)"
23	263540 7495 275 47832 0.107859140616 299.578131769999 259 64 94 18736 1402144
vector 295  LispSyncTest.xTR2.eth[2].encap  decapPk:vector(packetBytes)  ETV
attr interpolationmode none
attr source decapPk
attr title "packets decapsulated, vector(packetBytes)"
295	784593 107 277 1323 0.107859140616 10.76687084616 4 40 40 160 6400
vector 476  LispSyncTest.SW.relayUnit  "buffer level"  ETV
476	1111298 60244 278 47834 0.107859140616 299.578131769999 2008 0 94 84476 7307144
vector 37  LispSyncTest.SW.eth[1].mac  rxPkFromHL:vector(packetBytes)  ETV
attr interpolationmode none
attr source rxPkFromHL
attr title "packet bytes from higher layer, vector(packetBytes)"
37	308490 12783 283 47835 0.107859140616 299.578131769999 436 64 94 34954 2899756
vector 48  LispSyncTest.SW.eth[2].mac  rxPkFromHL:vector(packetBytes)  ETV
attr interpolationmode none
attr source rxPkFromHL
attr title "packet bytes from higher layer, vector(packetBytes)"
48	349003 13752 284 47836 0.107859140616 299.578131769999 470 64 94 34610 2640860
vector 59  LispSyncTest.SW.eth[3].mac  rxPkFromHL:vector(packetBytes)  ETV
attr interpolationmode none
attr source rxPkFromHL
attr title "packet bytes from higher layer, vector(packetBytes)"
59	386647 12672 285 47837 0.107859140616 299.578131769999 432 64 94 31098 2314572
vector 32  LispSyncTest.SW.eth[1].mac  txPk:vector(packetBytes)  ETV
attr interpolationmode none
attr source txPk
attr title "packets transmitted, vector(packetBytes)"
32	276655 12783 287 47839 0.107864900616 299.578137529999 436 64 94 34954 2899756
vector 43  LispSyncTest.SW.eth[2].mac  txPk:vector(packetBytes)  ETV
attr interpolationmode none
attr source txPk
attr title "packets transmitted, vector(packetBytes)"
43	321273 13752 288 47840 0.107864900616 299.578137529999 470 64 94 34610 2640860
vector 54  LispSyncTest.SW.eth[3].mac  txPk:vector(packetBytes)  ETV
attr interpolationmode none
attr source txPk
attr title "packets transmitted, vector(packetBytes)"
54	362755 12672 289 47841 0.107864900616 299.578137529999 432 64 94 31098 2314572
vector 274  LispSyncTest.xTR2.eth[1].mac  rxPkOk:vector(packetBytes)  ETV
attr interpolationmode none
attr source rxPkOk
attr title "packets received OK, vector(packetBytes)"
274	724679 13219 290 47842 0.107864950616 299.578137579999 436 64 94 34954 2899756
vector 275  LispSyncTest.xTR2.eth[1].mac  passedUpPk:vector(packetBytes)  ETV
attr interpolationmode none
attr source packetSentToUpper
attr title "packets passed to higher layer, vector(packetBytes)"
275	737898 13219 290 47842 0.107864950616 299.578137579999 436 64 94 34954 2899756
vector 121  LispSyncTest.Host1.eth[0].mac  rxPkOk:vector(packetBytes)  ETV
attr interpolationmode none
attr source rxPkOk
attr title "packets received OK, vector(packetBytes)"
121	425529 14222 291 47843 0.107864950616 299.578137579999 470 64 94 34610 2640860
vector 122  LispSyncTest.Host1.eth[0].mac  passedUpPk:vector(packetBytes)  ETV
attr interpolationmode none
attr source packetSentToUpper
attr title "packets passed to higher layer, vector(packetBytes)"
122	439751 14222 291 47843 0.107864950616 299.578137579999 470 64 94 34610 2640860
vector 188  LispSyncTest.Host2.eth[0].mac  rxPkOk:vector(packetBytes)  ETV
attr interpolationmode none
attr source rxPkOk
attr title "packets received OK, vector(packetBytes)"
188	503528 13104 292 47844 0.107864950616 299.578137579999 432 64 94 31098 2314572
vector 189  LispSyncTest.Host2.eth[0].mac  passedUpPk:vector(packetBytes)  ETV
attr interpolationmode none
attr source packetSentToUpper
attr title "packets passed to higher layer, vector(packetBytes)"
189	516632 13104 292 47844 0.107864950616 299.578137579999 432 64 94 31098 2314572
vector 283  LispSyncTest.xTR2.eth[1].encap  decapPk:vector(packetBytes)  ETV
attr interpolationmode none
attr source decapPk
attr title "packets decapsulated, vector(packetBytes)"
283	770833 13219 293 47845 0.107864950616 299.578137579999 436 20 76 22208 1456384
vector 130  LispSyncTest.Host1.eth[0].encap  decapPk:vector(packetBytes)  ETV
attr interpolationmode none
attr source decapPk
attr title "packets decapsulated, vector(packetBytes)"
130	468425 14222 294 47846 0.107864950616 299.578137579999 470 20 76 18192 1018784
vector 197  LispSyncTest.Host2.eth[0].encap  decapPk:vector(packetBytes)  ETV
attr interpolationmode none
attr source decapPk
attr title "packets decapsulated, vector(packetBytes)"
197	541332 13104 295 47847 0.107864950616 299.578137579999 432 20 76 15400 809280
vector 312  LispSyncTest.MRMS.networkLayer6.neighbourDiscovery  startDAD:vector  ETV
attr title "DAD started, vector"
312	806213 26 305 305 0.131109585799 0.131109585799 1 1 1 1 1
vector 322  LispSyncTest.MRMS.eth[0].encap  encapPk:vector(packetBytes)  ETV
attr interpolationmode none
attr source encapPk
attr title "packets encapsulated, vector(packetBytes)"
322	811867 1292 308 35932 0.131109585799 247.263184892301 43 28 71 2411 138325
vector 318  LispSyncTest.MRMS.eth[0].mac  rxPkFromHL:vector(packetBytes)  ETV
attr interpolationmode none
attr source rxPkFromHL
attr title "packet bytes from higher layer, vector(packetBytes)"
318	810575 1292 309 35933 0.131109585799 247.263184892301 43 64 89 3245 245941
vector 313  LispSyncTest.MRMS.eth[0].mac  txPk:vector(packetBytes)  ETV
attr interpolationmode none
attr source txPk
attr title "packets transmitted, vector(packetBytes)"
313	806239 1292 310 35935 0.131115345799 247.263191692301 43 64 89 3245 245941
vector 341  LispSyncTest.Core.eth[0].mac  rxPkOk:vector(packetBytes)  ETV
attr interpolationmode none
attr source rxPkOk
attr title "packets received OK, vector(packetBytes)"
341	826083 1292 311 35936 0.131115395799 247.263191742301 43 64 89 3245 245941
vector 342  LispSyncTest.Core.eth[0].mac  passedUpPk:vector(packetBytes)  ETV
attr interpolationmode none
attr source packetSentToUpper
attr title "packets passed to higher layer, vector(packetBytes)"
342	827375 1292 311 35936 0.131115395799 247.263191742301 43 64 89 3245 245941
vector 350  LispSyncTest.Core.eth[0].encap  decapPk:vector(packetBytes)  ETV
attr interpolationmode none
attr source decapPk
attr title "packets decapsulated, vector(packetBytes)"
350	831711 1292 312 35937 0.131115395799 247.263191742301 43 28 71 2411 138325
vector 260  LispSyncTest.xTR2.networkLayer6.neighbourDiscovery  startDAD:vector  ETV
attr title "DAD started, vector"
260	668769 78 315 315 0.183919038553 0.183919038553 3 1 1 3 3
vector 282  LispSyncTest.xTR2.eth[1].encap  encapPk:vector(packetBytes)  ETV
attr interpolationmode none
attr source encapPk
attr title "packets encapsulated, vector(packetBytes)"
282	760975 9858 323 47444 0.183919038553 297.468005738972 320 20 76 17384 1177664
vector 294  LispSyncTest.xTR2.eth[2].encap  encapPk:vector(packetBytes)  ETV
attr interpolationmode none
attr source encapPk
attr title "packets encapsulated, vector(packetBytes)"
294	784484 109 324 1192 0.183919038553 9.637892564455 4 40 40 160 6400
vector 278  LispSyncTest.xTR2.eth[1].mac  rxPkFromHL:vector(packetBytes)  ETV
attr interpolationmode none
attr source rxPkFromHL
attr title "packet bytes from higher layer, vector(packetBytes)"
278	751117 9858 326 47445 0.183919038553 297.468005738972 320 64 94 26300 2230280
vector 290  LispSyncTest.xTR2.eth[2].mac  rxPkFromHL:vector(packetBytes)  ETV
attr interpolationmode none
attr source rxPkFromHL
attr title "packet bytes from higher layer, vector(packetBytes)"
290	784375 109 327 1193 0.183919038553 9.637892564455 4 64 64 256 16384
vector 273  LispSyncTest.xTR2.eth[1].mac  txPk:vector(packetBytes)  ETV
attr interpolationmode none
attr source txPk
attr title "packets transmitted, vector(packetBytes)"
273	714833 9846 333 47449 0.183925758552 297.468014858971 320 64 94 26300 2230280
vector 285  LispSyncTest.xTR2.eth[2].mac  txPk:vector(packetBytes)  ETV
attr interpolationmode none
attr source txPk
attr title "packets transmitted, vector(packetBytes)"
285	784052 109 334 1195 0.183925758552 9.637899284454 4 64 64 256 16384
vector 234  LispSyncTest.xTR1.eth[2].mac  rxPkOk:vector(packetBytes)  ETV
attr interpolationmode none
attr source rxPkOk
attr title "packets received OK, vector(packetBytes)"
234	633789 109 336 1196 0.183925808552 9.637899334454 4 64 64 256 16384
vector 235  LispSyncTest.xTR1.eth[2].mac  passedUpPk:vector(packetBytes)  ETV
attr interpolationmode none
attr source packetSentToUpper
attr title "packets passed to higher layer, vector(packetBytes)"
235	633898 109 336 1196 0.183925808552 9.637899334454 4 64 64 256 16384
vector 33  LispSyncTest.SW.eth[1].mac  rxPkOk:vector(packetBytes)  ETV
attr interpolationmode none
attr source rxPkOk
attr title "packets received OK, vector(packetBytes)"
33	289438 9526 337 47450 0.183925808552 297.468014908971 320 64 94 26300 2230280
vector 34  LispSyncTest.SW.eth[1].mac  passedUpPk:vector(packetBytes)  ETV
attr interpolationmode none
attr source packetSentToUpper
attr title "packets passed to higher layer, vector(packetBytes)"
34	298964 9526 337 47450 0.183925808552 297.468014908971 320 64 94 26300 2230280
vector 243  LispSyncTest.xTR1.eth[2].encap  decapPk:vector(packetBytes)  ETV
attr interpolationmode none
attr source decapPk
attr title "packets decapsulated, vector(packetBytes)"
243	634227 109 339 1197 0.183925808552 9.637899334454 4 40 40 160 6400
vector 26  LispSyncTest.SW.eth[0].mac  rxPkFromHL:vector(packetBytes)  ETV
attr interpolationmode none
attr source rxPkFromHL
attr title "packet bytes from higher layer, vector(packetBytes)"
26	271035 5620 345 47702 0.183925808552 298.259913524063 192 64 94 17418 1596972
vector 21  LispSyncTest.SW.eth[0].mac  txPk:vector(packetBytes)  ETV
attr interpolationmode none
attr source txPk
attr title "packets transmitted, vector(packetBytes)"
21	250425 5620 349 47705 0.183931568552 298.259921684063 192 64 94 17418 1596972
vector 222  LispSyncTest.xTR1.eth[1].mac  rxPkOk:vector(packetBytes)  ETV
attr interpolationmode none
attr source rxPkOk
attr title "packets received OK, vector(packetBytes)"
222	602674 5812 352 47706 0.183931618552 298.259921734063 192 64 94 17418 1596972
vector 223  LispSyncTest.xTR1.eth[1].mac  passedUpPk:vector(packetBytes)  ETV
attr interpolationmode none
attr source packetSentToUpper
attr title "packets passed to higher layer, vector(packetBytes)"
223	608486 5812 352 47706 0.183931618552 298.259921734063 192 64 94 17418 1596972
vector 231  LispSyncTest.xTR1.eth[1].encap  decapPk:vector(packetBytes)  ETV
attr interpolationmode none
attr source decapPk
attr title "packets decapsulated, vector(packetBytes)"
231	627870 5812 355 47707 0.183931618552 298.259921734063 192 20 76 13696 1012416
vector 397  LispSyncTest.xTR_Responder.networkLayer6.neighbourDiscovery  startDAD:vector  ETV
attr title "DAD started, vector"
397	1016071 26 367 367 0.270704573462 0.270704573462 1 1 1 1 1
vector 407  LispSyncTest.xTR_Responder.eth[0].encap  encapPk:vector(packetBytes)  ETV
attr interpolationmode none
attr source encapPk
attr title "packets encapsulated, vector(packetBytes)"
407	1063779 11991 370 47743 0.270704573462 298.259944874062 380 28 1048 45843 9041369
vector 403  LispSyncTest.xTR_Responder.eth[0].mac  rxPkFromHL:vector(packetBytes)  ETV
attr interpolationmode none
attr source rxPkFromHL
attr title "packet bytes from higher layer, vector(packetBytes)"
403	1051788 11991 371 47744 0.270704573462 298.259944874062 380 64 1066 52743 10821725
vector 398  LispSyncTest.xTR_Responder.eth[0].mac  txPk:vector(packetBytes)  ETV
attr interpolationmode none
attr source txPk
attr title "packets transmitted, vector(packetBytes)"
398	1016097 12027 372 47746 0.270710333462 298.259955914062 380 64 1066 52743 10821725
vector 377  LispSyncTest.Core.eth[3].mac  rxPkOk:vector(packetBytes)  ETV
attr interpolationmode none
attr source rxPkOk
attr title "packets received OK, vector(packetBytes)"
377	921766 12027 373 47747 0.270710383462 298.259955964062 380 64 1066 52743 10821725
vector 378  LispSyncTest.Core.eth[3].mac  passedUpPk:vector(packetBytes)  ETV
attr interpolationmode none
attr source packetSentToUpper
attr title "packets passed to higher layer, vector(packetBytes)"
378	933793 12027 373 47747 0.270710383462 298.259955964062 380 64 1066 52743 10821725
vector 386  LispSyncTest.Core.eth[3].encap  decapPk:vector(packetBytes)  ETV
attr interpolationmode none
attr source decapPk
attr title "packets decapsulated, vector(packetBytes)"
386	969484 12027 374 47748 0.270710383462 298.259955964062 380 28 1048 45843 9041369
vector 186  LispSyncTest.Host2.networkLayer6.neighbourDiscovery  startDAD:vector  ETV
attr title "DAD started, vector"
186	497704 26 377 377 0.669969993736 0.669969993736 1 1 1 1 1
vector 196  LispSyncTest.Host2.eth[0].encap  encapPk:vector(packetBytes)  ETV
attr interpolationmode none
attr source encapPk
attr title "packets encapsulated, vector(packetBytes)"
196	535534 5798 380 47600 0.669969993736 298.051373457063 188 28 76 13904 1044224
vector 192  LispSyncTest.Host2.eth[0].mac  rxPkFromHL:vector(packetBytes)  ETV
attr interpolationmode none
attr source rxPkFromHL
attr title "packet bytes from higher layer, vector(packetBytes)"
192	529736 5798 381 47601 0.669969993736 298.051373457063 188 64 94 17402 1618508
vector 187  LispSyncTest.Host2.eth[0].mac  txPk:vector(packetBytes)  ETV
attr interpolationmode none
attr source txPk
attr title "packets transmitted, vector(packetBytes)"
187	497730 5798 383 47603 0.669975753736 298.051381617063 188 64 94 17402 1618508
vector 55  LispSyncTest.SW.eth[3].mac  rxPkOk:vector(packetBytes)  ETV
attr interpolationmode none
attr source rxPkOk
attr title "packets received OK, vector(packetBytes)"
55	375427 5610 384 47604 0.669975803736 298.051381667063 188 64 94 17402 1618508
vector 56  LispSyncTest.SW.eth[3].mac  passedUpPk:vector(packetBytes)  ETV
attr interpolationmode none
attr source packetSentToUpper
attr title "packets passed to higher layer, vector(packetBytes)"
56	381037 5610 384 47604 0.669975803736 298.051381667063 188 64 94 17402 1618508
vector 119  LispSyncTest.Host1.networkLayer6.neighbourDiscovery  startDAD:vector  ETV
attr title "DAD started, vector"
119	418277 26 410 410 0.809092178707 0.809092178707 1 1 1 1 1