file 1214359 1424255993                                         
version 2
run NoSync-3outages-0-20150218-10:39:52-9624
attr configname NoSync-3outages
attr datetime 20150218-10:39:52
attr experiment NoSync-3outages
attr inifile omnetpp.ini
attr iterationvars ""
attr iterationvars2 $repetition=0
attr measurement ""
attr network LispSyncTest
attr processid 9624
attr repetition 0
attr replication #0
attr resultdir results
attr runnumber 0
attr seedset 0
vector 9  LispSyncTest.SW.ethg$o[0].channel  busy:vector  ETV
attr interpolationmode sample-hold
attr source channelBusy
9	42149 3277 0 10212 0 118.692410344398 127 0 1 63 63
vector 11  LispSyncTest.SW.ethg$o[1].channel  busy:vector  ETV
attr interpolationmode sample-hold
attr source channelBusy
11	155737 22986 0 47293 0 299.656262529999 813 0 1 406 406
vector 12  LispSyncTest.SW.ethg$o[2].channel  busy:vector  ETV
attr interpolationmode sample-hold
attr source channelBusy
12	178723 26346 0 47294 0 299.656262529999 933 0 1 466 466
vector 14  LispSyncTest.SW.ethg$o[3].channel  busy:vector  ETV
attr interpolationmode sample-hold
attr source channelBusy
14	218537 24602 0 47402 0 299.885180372516 869 0 1 434 434
vector 13  LispSyncTest.Host1.ethg$o[0].channel  busy:vector  ETV
attr interpolationmode sample-hold
attr source channelBusy
13	205069 13468 0 47154 0 298.554810748173 473 0 1 236 236
vector 15  LispSyncTest.Host2.ethg$o[0].channel  busy:vector  ETV
attr interpolationmode sample-hold
attr source channelBusy
15	243139 10910 0 47323 0 299.885109462518 379 0 1 189 189
vector 2  LispSyncTest.xTR1.ethg$o[0].channel  busy:vector  ETV
attr interpolationmode sample-hold
attr source channelBusy
2	45426 3287 0 10228 0 118.692422394397 127 0 1 63 63
vector 8  LispSyncTest.xTR1.ethg$o[1].channel  busy:vector  ETV
attr interpolationmode sample-hold
attr source channelBusy
8	34730 7419 0 10279 0 118.692464834396 285 0 1 142 142
vector 16  LispSyncTest.xTR1.ethg$o[2].channel  busy:vector  ETV
attr interpolationmode sample-hold
attr source channelBusy
16	34310 208 0 1320 0 10.76687079616 9 0 1 4 4
vector 4  LispSyncTest.xTR2.ethg$o[0].channel  busy:vector  ETV
attr interpolationmode sample-hold
attr source channelBusy
4	80131 11595 0 35545 0 248.000042659997 419 0 1 209 209
vector 10  LispSyncTest.xTR2.ethg$o[1].channel  busy:vector  ETV
attr interpolationmode sample-hold
attr source channelBusy
10	139961 15776 0 47396 0 299.885172162516 549 0 1 274 274
vector 17  LispSyncTest.xTR2.ethg$o[2].channel  busy:vector  ETV
attr interpolationmode sample-hold
attr source channelBusy
17	34518 212 0 1194 0 9.637899284454 9 0 1 4 4
vector 1  LispSyncTest.MRMS.ethg$o[0].channel  busy:vector  ETV
attr interpolationmode sample-hold
attr source channelBusy
1	76234 3897 0 35649 0 248.58953692182 143 0 1 71 71
vector 0  LispSyncTest.Core.ethg$o[0].channel  busy:vector  ETV
attr interpolationmode sample-hold
attr source channelBusy
0	72015 4219 0 35636 0 248.58953007182 155 0 1 77 77
vector 5  LispSyncTest.Core.ethg$o[2].channel  busy:vector  ETV
attr interpolationmode sample-hold
attr source channelBusy
5	91726 11225 0 47381 0 299.885162992517 407 0 1 203 203
vector 6  LispSyncTest.Core.ethg$o[3].channel  busy:vector  ETV
attr interpolationmode sample-hold
attr source channelBusy
6	102951 18357 0 47354 0 299.885140812517 663 0 1 331 331
vector 7  LispSyncTest.xTR_Responder.ethg$o[0].channel  busy:vector  ETV
attr interpolationmode sample-hold
attr source channelBusy
7	121308 18653 0 47371 0 299.885151902517 677 0 1 338 338
vector 248  LispSyncTest.xTR1.LISP.lispMsgLogger  msg-size:vector  ETV
attr source sum(sigLispSizeSend)+sum(sigLispSizeRecv)
attr title "msg size, vector"
248	670472 4170 1 47412 0 300 137 201 6978 -1.#IND -1.#IND
vector 249  LispSyncTest.xTR1.LISP.lispMsgLogger  msg-sizesend:vector  ETV
attr source sum(sigLispSizeSend)
attr title "msg size send, vector"
249	674642 2160 1 47412 0 300 75 59 4708 179692 568260088
vector 300  LispSyncTest.xTR2.LISP.lispMsgLogger  msg-size:vector  ETV
attr source sum(sigLispSizeSend)+sum(sigLispSizeRecv)
attr title "msg size, vector"
300	810440 1815 7 35594 0 248.000051479997 64 201 3644 -1.#IND -1.#IND
vector 301  LispSyncTest.xTR2.LISP.lispMsgLogger  msg-sizesend:vector  ETV
attr source sum(sigLispSizeSend)
attr title "msg size send, vector"
301	812255 973 7 35529 0 248.000032979998 38 59 2490 48321 80852077
vector 199  LispSyncTest.xTR1.UDP  sentPk:vector(packetBytes)  ETV
attr interpolationmode none
attr source sentPk
attr title "packets sent, vector(packetBytes)"
199	558682 7022 21 47338 0 299.885117722518 238 51 102 21894 2028862
vector 251  LispSyncTest.xTR2.UDP  sentPk:vector(packetBytes)  ETV
attr interpolationmode none
attr source sentPk
attr title "packets sent, vector(packetBytes)"
251	678778 5990 23 35531 0 248.000032979998 202 51 102 18330 1676026
vector 204  LispSyncTest.xTR1.networkLayer.arp  sentReq:vector  ETV
attr title "ARP request sent, vector"
204	574898 183 29 41986 0 276.132807744956 8 1 1 8 8
vector 206  LispSyncTest.xTR1.networkLayer.arp  initiatedResolution:vector  ETV
attr title "ARP initiated resolutions, vector"
206	575081 149 29 41986 0 276.132807744956 6 1 1 6 6
vector 256  LispSyncTest.xTR2.networkLayer.arp  sentReq:vector  ETV
attr title "ARP request sent, vector"
256	697118 147 31 35743 0 248.628379463044 6 1 1 6 6
vector 258  LispSyncTest.xTR2.networkLayer.arp  initiatedResolution:vector  ETV
attr title "ARP initiated resolutions, vector"
258	697265 147 31 35743 0 248.628379463044 6 1 1 6 6
vector 218  LispSyncTest.xTR1.eth[0].encap  encapPk:vector(packetBytes)  ETV
attr interpolationmode none
attr source encapPk
attr title "packets encapsulated, vector(packetBytes)"
218	599487 7433 35 47342 0 299.885117722518 244 28 122 26586 2971146
vector 270  LispSyncTest.xTR2.eth[0].encap  encapPk:vector(packetBytes)  ETV
attr interpolationmode none
attr source encapPk
attr title "packets encapsulated, vector(packetBytes)"
270	723314 6395 36 35539 0 248.000032979998 209 28 122 22614 2498778
vector 214  LispSyncTest.xTR1.eth[0].mac  rxPkFromHL:vector(packetBytes)  ETV
attr interpolationmode none
attr source rxPkFromHL
attr title "packet bytes from higher layer, vector(packetBytes)"
214	592214 7273 37 47343 0 299.885117722518 235 64 140 30170 3915286
vector 266  LispSyncTest.xTR2.eth[0].mac  rxPkFromHL:vector(packetBytes)  ETV
attr interpolationmode none
attr source rxPkFromHL
attr title "packet bytes from higher layer, vector(packetBytes)"
266	716909 6405 38 35541 0 248.000032979998 209 64 140 26454 3389466
vector 209  LispSyncTest.xTR1.eth[0].mac  txPk:vector(packetBytes)  ETV
attr interpolationmode none
attr source txPk
attr title "packets transmitted, vector(packetBytes)"
209	575325 7369 41 47346 0.000006719999 299.885129722517 235 64 140 30170 3915286
vector 261  LispSyncTest.xTR2.eth[0].mac  txPk:vector(packetBytes)  ETV
attr interpolationmode none
attr source txPk
attr title "packets transmitted, vector(packetBytes)"
261	697490 6619 42 35563 0.000006719999 248.000042659997 209 64 140 26454 3389466
vector 353  LispSyncTest.Core.eth[1].mac  rxPkOk:vector(packetBytes)  ETV
attr interpolationmode none
attr source rxPkOk
attr title "packets received OK, vector(packetBytes)"
353	863307 7369 43 47347 0.000006769999 299.885129772517 235 64 140 30170 3915286
vector 354  LispSyncTest.Core.eth[1].mac  passedUpPk:vector(packetBytes)  ETV
attr interpolationmode none
attr source packetSentToUpper
attr title "packets passed to higher layer, vector(packetBytes)"
354	870676 7369 43 47347 0.000006769999 299.885129772517 235 64 140 30170 3915286
vector 365  LispSyncTest.Core.eth[2].mac  rxPkOk:vector(packetBytes)  ETV
attr interpolationmode none
attr source rxPkOk
attr title "packets received OK, vector(packetBytes)"
365	903531 6619 44 35565 0.000006769999 248.000042709997 209 64 140 26454 3389466
vector 366  LispSyncTest.Core.eth[2].mac  passedUpPk:vector(packetBytes)  ETV
attr interpolationmode none
attr source packetSentToUpper
attr title "packets passed to higher layer, vector(packetBytes)"
366	910150 6619 44 35565 0.000006769999 248.000042709997 209 64 140 26454 3389466
vector 362  LispSyncTest.Core.eth[1].encap  decapPk:vector(packetBytes)  ETV
attr interpolationmode none
attr source decapPk
attr title "packets decapsulated, vector(packetBytes)"
362	889768 7363 45 47348 0.000006769999 299.885129772517 235 28 122 25862 2899246
vector 374  LispSyncTest.Core.eth[2].encap  decapPk:vector(packetBytes)  ETV
attr interpolationmode none
attr source decapPk
attr title "packets decapsulated, vector(packetBytes)"
374	929563 6609 46 35567 0.000006769999 248.000042709997 209 28 122 22614 2498778
vector 361  LispSyncTest.Core.eth[1].encap  encapPk:vector(packetBytes)  ETV
attr interpolationmode none
attr source encapPk
attr title "packets encapsulated, vector(packetBytes)"
361	882805 6963 55 47116 0.000006769999 298.136443120439 223 28 112 19802 1972938
vector 373  LispSyncTest.Core.eth[2].encap  encapPk:vector(packetBytes)  ETV
attr interpolationmode none
attr source encapPk
attr title "packets encapsulated, vector(packetBytes)"
373	923169 6394 56 47380 0.000006769999 299.885151952517 203 28 112 21454 2329202
vector 357  LispSyncTest.Core.eth[1].mac  rxPkFromHL:vector(packetBytes)  ETV
attr interpolationmode none
attr source rxPkFromHL
attr title "packet bytes from higher layer, vector(packetBytes)"
357	878045 4760 57 47117 0.000006769999 298.136443120439 153 64 130 16754 1933302
vector 369  LispSyncTest.Core.eth[2].mac  rxPkFromHL:vector(packetBytes)  ETV
attr interpolationmode none
attr source rxPkFromHL
attr title "packet bytes from higher layer, vector(packetBytes)"
369	916769 6400 58 47381 0.000006769999 299.885151952517 203 64 130 25162 3173258
vector 352  LispSyncTest.Core.eth[1].mac  txPk:vector(packetBytes)  ETV
attr interpolationmode none
attr source txPk
attr title "packets transmitted, vector(packetBytes)"
352	858547 4760 59 47119 0.000012529999 298.136454160439 153 64 130 16754 1933302
vector 364  LispSyncTest.Core.eth[2].mac  txPk:vector(packetBytes)  ETV
attr interpolationmode none
attr source txPk
attr title "packets transmitted, vector(packetBytes)"
364	897131 6400 60 47383 0.000012529999 299.885162992517 203 64 130 25162 3173258
vector 210  LispSyncTest.xTR1.eth[0].mac  rxPkOk:vector(packetBytes)  ETV
attr interpolationmode none
attr source rxPkOk
attr title "packets received OK, vector(packetBytes)"
210	582694 4760 61 47120 0.000012579999 298.136454210439 153 64 130 16754 1933302
vector 211  LispSyncTest.xTR1.eth[0].mac  passedUpPk:vector(packetBytes)  ETV
attr interpolationmode none
attr source packetSentToUpper
attr title "packets passed to higher layer, vector(packetBytes)"
211	587454 4760 61 47120 0.000012579999 298.136454210439 153 64 130 16754 1933302
vector 262  LispSyncTest.xTR2.eth[0].mac  rxPkOk:vector(packetBytes)  ETV
attr interpolationmode none
attr source rxPkOk
attr title "packets received OK, vector(packetBytes)"
262	704109 6400 62 47384 0.000012579999 299.885163042517 203 64 130 25162 3173258
vector 263  LispSyncTest.xTR2.eth[0].mac  passedUpPk:vector(packetBytes)  ETV
attr interpolationmode none
attr source packetSentToUpper
attr title "packets passed to higher layer, vector(packetBytes)"
263	710509 6400 62 47384 0.000012579999 299.885163042517 203 64 130 25162 3173258
vector 219  LispSyncTest.xTR1.eth[0].encap  decapPk:vector(packetBytes)  ETV
attr interpolationmode none
attr source decapPk
attr title "packets decapsulated, vector(packetBytes)"
219	606920 4754 63 47121 0.000012579999 298.136454210439 153 28 112 13946 1375734
vector 271  LispSyncTest.xTR2.eth[0].encap  decapPk:vector(packetBytes)  ETV
attr interpolationmode none
attr source decapPk
attr title "packets decapsulated, vector(packetBytes)"
271	729709 6394 64 47385 0.000012579999 299.885163042517 203 28 112 21454 2329202
vector 252  LispSyncTest.xTR2.UDP  rcvdPk:vector(packetBytes)  ETV
attr interpolationmode none
attr source rcvdPk
attr title "packets received, vector(packetBytes)"
252	684768 6129 117 47388 0.000031719998 299.885163042517 200 39 92 17370 1552050
vector 253  LispSyncTest.xTR2.UDP  passedUpPk:vector(count)  ETV
attr interpolationmode none
attr title "packets passed up, vector(count)"
253	690897 6221 117 47388 0.000031719998 299.885163042517 200 1 200 20100 2686700
vector 200  LispSyncTest.xTR1.UDP  rcvdPk:vector(packetBytes)  ETV
attr interpolationmode none
attr source rcvdPk
attr title "packets received, vector(packetBytes)"
200	565704 4576 118 47124 0.000031719998 298.136454210439 150 39 92 10862 878902
vector 201  LispSyncTest.xTR1.UDP  passedUpPk:vector(count)  ETV
attr interpolationmode none
attr title "packets passed up, vector(count)"
201	570280 4618 118 47124 0.000031719998 298.136454210439 150 1 150 11325 1136275
vector 302  LispSyncTest.xTR2.LISP.lispMsgLogger  msg-sizerecv:vector  ETV
attr source sum(sigLispSizeRecv)
attr title "msg size recieved, vector"
302	813228 810 119 35594 0.000031719998 248.000051479997 26 59 1154 16469 12689017
vector 250  LispSyncTest.xTR1.LISP.lispMsgLogger  msg-sizerecv:vector  ETV
attr source sum(sigLispSizeRecv)
attr title "msg size recieved, vector"
250	676802 1976 120 35667 0.000031719998 248.58954382182 62 59 2270 74599 111110967
vector 208  LispSyncTest.xTR1.networkLayer6.neighbourDiscovery  startDAD:vector  ETV
attr title "DAD started, vector"
208	575247 78 253 253 0.107852370617 0.107852370617 3 1 1 3 3
vector 230  LispSyncTest.xTR1.eth[1].encap  encapPk:vector(packetBytes)  ETV
attr interpolationmode none
attr source encapPk
attr title "packets encapsulated, vector(packetBytes)"
230	643576 7924 261 47285 0.107852370617 299.65625 302 20 76 11112 601760
vector 242  LispSyncTest.xTR1.eth[2].encap  encapPk:vector(packetBytes)  ETV
attr interpolationmode none
attr source encapPk
attr title "packets encapsulated, vector(packetBytes)"
242	659386 110 262 1318 0.107852370617 10.766864076161 4 40 40 160 6400
vector 226  LispSyncTest.xTR1.eth[1].mac  rxPkFromHL:vector(packetBytes)  ETV
attr interpolationmode none
attr source rxPkFromHL
attr title "packet bytes from higher layer, vector(packetBytes)"
226	635652 7924 264 47286 0.107852370617 299.65625 302 64 94 21968 1654112
vector 238  LispSyncTest.xTR1.eth[2].mac  rxPkFromHL:vector(packetBytes)  ETV
attr interpolationmode none
attr source rxPkFromHL
attr title "packet bytes from higher layer, vector(packetBytes)"
238	659276 110 265 1319 0.107852370617 10.766864076161 4 64 64 256 16384
vector 221  LispSyncTest.xTR1.eth[1].mac  txPk:vector(packetBytes)  ETV
attr interpolationmode none
attr source txPk
attr title "packets transmitted, vector(packetBytes)"
221	611674 9076 271 47289 0.107859090616 299.656256719999 302 64 94 21968 1654112
vector 233  LispSyncTest.xTR1.eth[2].mac  txPk:vector(packetBytes)  ETV
attr interpolationmode none
attr source txPk
attr title "packets transmitted, vector(packetBytes)"
233	658951 107 272 1321 0.107859090616 10.76687079616 4 64 64 256 16384
vector 286  LispSyncTest.xTR2.eth[2].mac  rxPkOk:vector(packetBytes)  ETV
attr interpolationmode none
attr source rxPkOk
attr title "packets received OK, vector(packetBytes)"
286	798403 107 274 1322 0.107859140616 10.76687084616 4 64 64 256 16384
vector 287  LispSyncTest.xTR2.eth[2].mac  passedUpPk:vector(packetBytes)  ETV
attr interpolationmode none
attr source packetSentToUpper
attr title "packets passed to higher layer, vector(packetBytes)"
287	798510 107 274 1322 0.107859140616 10.76687084616 4 64 64 256 16384
vector 22  LispSyncTest.SW.eth[0].mac  rxPkOk:vector(packetBytes)  ETV
attr interpolationmode none
attr source rxPkOk
attr title "packets received OK, vector(packetBytes)"
22	261255 8774 275 47290 0.107859140616 299.656256769999 302 64 94 21968 1654112
vector 23  LispSyncTest.SW.eth[0].mac  passedUpPk:vector(packetBytes)  ETV
attr interpolationmode none
attr source packetSentToUpper
attr title "packets passed to higher layer, vector(packetBytes)"
23	270029 8774 275 47290 0.107859140616 299.656256769999 302 64 94 21968 1654112
vector 295  LispSyncTest.xTR2.eth[2].encap  decapPk:vector(packetBytes)  ETV
attr interpolationmode none
attr source decapPk
attr title "packets decapsulated, vector(packetBytes)"
295	798835 107 277 1323 0.107859140616 10.76687084616 4 40 40 160 6400
vector 476  LispSyncTest.SW.relayUnit  "buffer level"  ETV
476	1114896 60071 278 47401 0.107859140616 299.885172212516 2002 0 94 84134 7271156
vector 37  LispSyncTest.SW.eth[1].mac  rxPkFromHL:vector(packetBytes)  ETV
attr interpolationmode none
attr source rxPkFromHL
attr title "packet bytes from higher layer, vector(packetBytes)"
37	314217 11894 283 47293 0.107859140616 299.656256769999 406 64 94 31324 2506696
vector 48  LispSyncTest.SW.eth[2].mac  rxPkFromHL:vector(packetBytes)  ETV
attr interpolationmode none
attr source rxPkFromHL
attr title "packet bytes from higher layer, vector(packetBytes)"
48	353675 13634 284 47294 0.107859140616 299.656256769999 466 64 94 34204 2600776
vector 59  LispSyncTest.SW.eth[3].mac  rxPkFromHL:vector(packetBytes)  ETV
attr interpolationmode none
attr source rxPkFromHL
attr title "packet bytes from higher layer, vector(packetBytes)"
59	391317 12730 285 47402 0.107859140616 299.885172212516 434 64 94 31256 2327504
vector 32  LispSyncTest.SW.eth[1].mac  txPk:vector(packetBytes)  ETV
attr interpolationmode none
attr source txPk
attr title "packets transmitted, vector(packetBytes)"
32	286009 11894 287 47297 0.107864900616 299.656262529999 406 64 94 31324 2506696
vector 43  LispSyncTest.SW.eth[2].mac  txPk:vector(packetBytes)  ETV
attr interpolationmode none
attr source txPk
attr title "packets transmitted, vector(packetBytes)"
43	326111 13634 288 47298 0.107864900616 299.656262529999 466 64 94 34204 2600776
vector 54  LispSyncTest.SW.eth[3].mac  txPk:vector(packetBytes)  ETV
attr interpolationmode none
attr source txPk
attr title "packets transmitted, vector(packetBytes)"
54	367309 12730 289 47404 0.107864900616 299.885180372516 434 64 94 31256 2327504
vector 274  LispSyncTest.xTR2.eth[1].mac  rxPkOk:vector(packetBytes)  ETV
attr interpolationmode none
attr source rxPkOk
attr title "packets received OK, vector(packetBytes)"
274	744534 12300 290 47300 0.107864950616 299.656262579999 406 64 94 31324 2506696
vector 275  LispSyncTest.xTR2.eth[1].mac  passedUpPk:vector(packetBytes)  ETV
attr interpolationmode none
attr source packetSentToUpper
attr title "packets passed to higher layer, vector(packetBytes)"
275	756834 12300 290 47300 0.107864950616 299.656262579999 406 64 94 31324 2506696
vector 121  LispSyncTest.Host1.eth[0].mac  rxPkOk:vector(packetBytes)  ETV
attr interpolationmode none
attr source rxPkOk
attr title "packets received OK, vector(packetBytes)"
121	429881 14100 291 47301 0.107864950616 299.656262579999 466 64 94 34204 2600776
vector 122  LispSyncTest.Host1.eth[0].mac  passedUpPk:vector(packetBytes)  ETV
attr interpolationmode none
attr source packetSentToUpper
attr title "packets passed to higher layer, vector(packetBytes)"
122	443981 14100 291 47301 0.107864950616 299.656262579999 466 64 94 34204 2600776
vector 188  LispSyncTest.Host2.eth[0].mac  rxPkOk:vector(packetBytes)  ETV
attr interpolationmode none
attr source rxPkOk
attr title "packets received OK, vector(packetBytes)"
188	507534 13164 292 47405 0.107864950616 299.885180422516 434 64 94 31256 2327504
vector 189  LispSyncTest.Host2.eth[0].mac  passedUpPk:vector(packetBytes)  ETV
attr interpolationmode none
attr source packetSentToUpper
attr title "packets passed to higher layer, vector(packetBytes)"
189	520698 13164 292 47405 0.107864950616 299.885180422516 434 64 94 31256 2327504
vector 283  LispSyncTest.xTR2.eth[1].encap  decapPk:vector(packetBytes)  ETV
attr interpolationmode none
attr source decapPk
attr title "packets decapsulated, vector(packetBytes)"
283	785994 12300 293 47303 0.107864950616 299.656262579999 406 20 76 18440 1139104
vector 130  LispSyncTest.Host1.eth[0].encap  decapPk:vector(packetBytes)  ETV
attr interpolationmode none
attr source decapPk
attr title "packets decapsulated, vector(packetBytes)"
130	472483 14100 294 47304 0.107864950616 299.656262579999 466 20 76 17872 992224
vector 197  LispSyncTest.Host2.eth[0].encap  decapPk:vector(packetBytes)  ETV
attr interpolationmode none
attr source decapPk
attr title "packets decapsulated, vector(packetBytes)"
197	545518 13164 295 47406 0.107864950616 299.885180422516 434 20 76 15536 817376
vector 312  LispSyncTest.MRMS.networkLayer6.neighbourDiscovery  startDAD:vector  ETV
attr title "DAD started, vector"
312	820595 26 305 305 0.131109585799 0.131109585799 1 1 1 1 1
vector 322  LispSyncTest.MRMS.eth[0].encap  encapPk:vector(packetBytes)  ETV
attr interpolationmode none
attr source encapPk
attr title "packets encapsulated, vector(packetBytes)"
322	829765 2157 308 35648 0.131109585799 248.58953012182 71 28 71 4063 235793
vector 318  LispSyncTest.MRMS.eth[0].mac  rxPkFromHL:vector(packetBytes)  ETV
attr interpolationmode none
attr source rxPkFromHL
attr title "packet bytes from higher layer, vector(packetBytes)"
318	827608 2157 309 35649 0.131109585799 248.58953012182 71 64 89 5401 411953
vector 313  LispSyncTest.MRMS.eth[0].mac  txPk:vector(packetBytes)  ETV
attr interpolationmode none
attr source txPk
attr title "packets transmitted, vector(packetBytes)"
313	820621 2157 310 35651 0.131115345799 248.58953692182 71 64 89 5401 411953
vector 341  LispSyncTest.Core.eth[0].mac  rxPkOk:vector(packetBytes)  ETV
attr interpolationmode none
attr source rxPkOk
attr title "packets received OK, vector(packetBytes)"
341	847246 2157 311 35652 0.131115395799 248.58953697182 71 64 89 5401 411953
vector 342  LispSyncTest.Core.eth[0].mac  passedUpPk:vector(packetBytes)  ETV
attr interpolationmode none
attr source packetSentToUpper
attr title "packets passed to higher layer, vector(packetBytes)"
342	849403 2157 311 35652 0.131115395799 248.58953697182 71 64 89 5401 411953
vector 350  LispSyncTest.Core.eth[0].encap  decapPk:vector(packetBytes)  ETV
attr interpolationmode none
attr source decapPk
attr title "packets decapsulated, vector(packetBytes)"
350	856390 2157 312 35653 0.131115395799 248.58953697182 71 28 71 4063 235793
vector 260  LispSyncTest.xTR2.networkLayer6.neighbourDiscovery  startDAD:vector  ETV
attr title "DAD started, vector"
260	697412 78 315 315 0.183919038553 0.183919038553 3 1 1 3 3
vector 282  LispSyncTest.xTR2.eth[1].encap  encapPk:vector(packetBytes)  ETV
attr interpolationmode none
attr source encapPk
attr title "packets encapsulated, vector(packetBytes)"
282	777564 8430 323 47393 0.183919038553 299.885163042517 274 20 76 15360 1052512
vector 294  LispSyncTest.xTR2.eth[2].encap  encapPk:vector(packetBytes)  ETV
attr interpolationmode none
attr source encapPk
attr title "packets encapsulated, vector(packetBytes)"
294	798726 109 324 1192 0.183919038553 9.637892564455 4 40 40 160 6400
vector 278  LispSyncTest.xTR2.eth[1].mac  rxPkFromHL:vector(packetBytes)  ETV
attr interpolationmode none
attr source rxPkFromHL
attr title "packet bytes from higher layer, vector(packetBytes)"
278	769134 8430 326 47394 0.183919038553 299.885163042517 274 64 94 22756 1947064
vector 290  LispSyncTest.xTR2.eth[2].mac  rxPkFromHL:vector(packetBytes)  ETV
attr interpolationmode none
attr source rxPkFromHL
attr title "packet bytes from higher layer, vector(packetBytes)"
290	798617 109 327 1193 0.183919038553 9.637892564455 4 64 64 256 16384
vector 273  LispSyncTest.xTR2.eth[1].mac  txPk:vector(packetBytes)  ETV
attr interpolationmode none
attr source txPk
attr title "packets transmitted, vector(packetBytes)"
273	736103 8431 333 47398 0.183925758552 299.885172162516 274 64 94 22756 1947064
vector 285  LispSyncTest.xTR2.eth[2].mac  txPk:vector(packetBytes)  ETV
attr interpolationmode none
attr source txPk
attr title "packets transmitted, vector(packetBytes)"
285	798294 109 334 1195 0.183925758552 9.637899284454 4 64 64 256 16384
vector 234  LispSyncTest.xTR1.eth[2].mac  rxPkOk:vector(packetBytes)  ETV
attr interpolationmode none
attr source rxPkOk
attr title "packets received OK, vector(packetBytes)"
234	659058 109 336 1196 0.183925808552 9.637899334454 4 64 64 256 16384
vector 235  LispSyncTest.xTR1.eth[2].mac  passedUpPk:vector(packetBytes)  ETV
attr interpolationmode none
attr source packetSentToUpper
attr title "packets passed to higher layer, vector(packetBytes)"
235	659167 109 336 1196 0.183925808552 9.637899334454 4 64 64 256 16384
vector 33  LispSyncTest.SW.eth[1].mac  rxPkOk:vector(packetBytes)  ETV
attr interpolationmode none
attr source rxPkOk
attr title "packets received OK, vector(packetBytes)"
33	297903 8157 337 47399 0.183925808552 299.885172212516 274 64 94 22756 1947064
vector 34  LispSyncTest.SW.eth[1].mac  passedUpPk:vector(packetBytes)  ETV
attr interpolationmode none
attr source packetSentToUpper
attr title "packets passed to higher layer, vector(packetBytes)"
34	306060 8157 337 47399 0.183925808552 299.885172212516 274 64 94 22756 1947064
vector 243  LispSyncTest.xTR1.eth[2].encap  decapPk:vector(packetBytes)  ETV
attr interpolationmode none
attr source decapPk
attr title "packets decapsulated, vector(packetBytes)"
243	659496 109 339 1197 0.183925808552 9.637899334454 4 40 40 160 6400
vector 26  LispSyncTest.SW.eth[0].mac  rxPkFromHL:vector(packetBytes)  ETV
attr interpolationmode none
attr source rxPkFromHL
attr title "packet bytes from higher layer, vector(packetBytes)"
26	278803 7206 345 47329 0.183925808552 299.885109512518 245 64 94 22100 2017880
vector 21  LispSyncTest.SW.eth[0].mac  txPk:vector(packetBytes)  ETV
attr interpolationmode none
attr source txPk
attr title "packets transmitted, vector(packetBytes)"
21	254049 7206 349 47332 0.183931568552 299.885117672518 245 64 94 22100 2017880
vector 222  LispSyncTest.xTR1.eth[1].mac  rxPkOk:vector(packetBytes)  ETV
attr interpolationmode none
attr source rxPkOk
attr title "packets received OK, vector(packetBytes)"
222	620750 7451 352 47333 0.183931618552 299.885117722518 245 64 94 22100 2017880
vector 223  LispSyncTest.xTR1.eth[1].mac  passedUpPk:vector(packetBytes)  ETV
attr interpolationmode none
attr source packetSentToUpper
attr title "packets passed to higher layer, vector(packetBytes)"
223	628201 7451 352 47333 0.183931618552 299.885117722518 245 64 94 22100 2017880
vector 231  LispSyncTest.xTR1.eth[1].encap  decapPk:vector(packetBytes)  ETV
attr interpolationmode none
attr source decapPk
attr title "packets decapsulated, vector(packetBytes)"
231	651500 7451 355 47334 0.183931618552 299.885117722518 245 20 76 17180 1265552
vector 397  LispSyncTest.xTR_Responder.networkLayer6.neighbourDiscovery  startDAD:vector  ETV
attr title "DAD started, vector"
397	1030363 26 367 367 0.270704573462 0.270704573462 1 1 1 1 1
vector 407  LispSyncTest.xTR_Responder.eth[0].encap  encapPk:vector(packetBytes)  ETV
attr interpolationmode none
attr source encapPk
attr title "packets encapsulated, vector(packetBytes)"
407	1072723 10654 370 47370 0.270704573462 299.885140862517 338 28 1048 41139 8514521
vector 403  LispSyncTest.xTR_Responder.eth[0].mac  rxPkFromHL:vector(packetBytes)  ETV
attr interpolationmode none
attr source rxPkFromHL
attr title "packet bytes from higher layer, vector(packetBytes)"
403	1062069 10654 371 47371 0.270704573462 299.885140862517 338 64 1066 47283 10111925
vector 398  LispSyncTest.xTR_Responder.eth[0].mac  txPk:vector(packetBytes)  ETV
attr interpolationmode none
attr source txPk
attr title "packets transmitted, vector(packetBytes)"
398	1030389 10690 372 47373 0.270710333462 299.885151902517 338 64 1066 47283 10111925
vector 377  LispSyncTest.Core.eth[3].mac  rxPkOk:vector(packetBytes)  ETV
attr interpolationmode none
attr source rxPkOk
attr title "packets received OK, vector(packetBytes)"
377	946667 10690 373 47374 0.270710383462 299.885151952517 338 64 1066 47283 10111925
vector 378  LispSyncTest.Core.eth[3].mac  passedUpPk:vector(packetBytes)  ETV
attr interpolationmode none
attr source packetSentToUpper
attr title "packets passed to higher layer, vector(packetBytes)"
378	957357 10690 373 47374 0.270710383462 299.885151952517 338 64 1066 47283 10111925
vector 386  LispSyncTest.Core.eth[3].encap  decapPk:vector(packetBytes)  ETV
attr interpolationmode none
attr source decapPk
attr title "packets decapsulated, vector(packetBytes)"
386	989037 10690 374 47375 0.270710383462 299.885151952517 338 28 1048 41139 8514521
vector 186  LispSyncTest.Host2.networkLayer6.neighbourDiscovery  startDAD:vector  ETV
attr title "DAD started, vector"
186	501680 26 377 377 0.669969993736 0.669969993736 1 1 1 1 1
vector 196  LispSyncTest.Host2.eth[0].encap  encapPk:vector(packetBytes)  ETV
attr interpolationmode none
attr source encapPk
attr title "packets encapsulated, vector(packetBytes)"
196	539690 5828 380 47322 0.669969993736 299.885101302518 189 28 76 13932 1045008
vector 192  LispSyncTest.Host2.eth[0].mac  rxPkFromHL:vector(packetBytes)  ETV
attr interpolationmode none
attr source rxPkFromHL
attr title "packet bytes from higher layer, vector(packetBytes)"
192	533862 5828 381 47323 0.669969993736 299.885101302518 189 64 94 17466 1622604
vector 187  LispSyncTest.Host2.eth[0].mac  txPk:vector(packetBytes)  ETV
attr interpolationmode none
attr source txPk
attr title "packets transmitted, vector(packetBytes)"
187	501706 5828 383 47325 0.669975753736 299.885109462518 189 64 94 17466 1622604
vector 55  LispSyncTest.SW.eth[3].mac  rxPkOk:vector(packetBytes)  ETV
attr interpolationmode none
attr source rxPkOk
attr title "packets received OK, vector(packetBytes)"
55	380039 5639 384 47326 0.669975803736 299.885109512518 189 64 94 17466 1622604
vector 56  LispSyncTest.SW.eth[3].mac  passedUpPk:vector(packetBytes)  ETV
attr interpolationmode none
attr source packetSentToUpper
attr title "packets passed to higher layer, vector(packetBytes)"
56	385678 5639 384 47326 0.669975803736 299.885109512518 189 64 94 17466 1622604
vector 119  LispSyncTest.Host1.networkLayer6.neighbourDiscovery  startDAD:vector  ETV
attr title "DAD started, vector"
119	422654 26 410 410 0.809092178707 0.809092178707 1 1 1 1 1