file 1214395 1424255772                                         
version 2
run NoSync-2outages-0-20150218-10:36:12-3696
attr configname NoSync-2outages
attr datetime 20150218-10:36:12
attr experiment NoSync-2outages
attr inifile omnetpp.ini
attr iterationvars ""
attr iterationvars2 $repetition=0
attr measurement ""
attr network LispSyncTest
attr processid 3696
attr repetition 0
attr replication #0
attr resultdir results
attr runnumber 0
attr seedset 0
vector 9  LispSyncTest.SW.ethg$o[0].channel  busy:vector  ETV
attr interpolationmode sample-hold
attr source channelBusy
9	42149 3277 0 10212 0 118.692410344398 127 0 1 63 63
vector 11  LispSyncTest.SW.ethg$o[1].channel  busy:vector  ETV
attr interpolationmode sample-hold
attr source channelBusy
11	153055 23680 0 47512 0 299.492200029999 837 0 1 418 418
vector 12  LispSyncTest.SW.ethg$o[2].channel  busy:vector  ETV
attr interpolationmode sample-hold
attr source channelBusy
12	176735 26582 0 47621 0 299.638770985652 941 0 1 470 470
vector 14  LispSyncTest.SW.ethg$o[3].channel  busy:vector  ETV
attr interpolationmode sample-hold
attr source channelBusy
14	216881 24204 0 47716 0 299.876718302959 855 0 1 427 427
vector 13  LispSyncTest.Host1.ethg$o[0].channel  busy:vector  ETV
attr interpolationmode sample-hold
attr source channelBusy
13	203317 13564 0 47542 0 299.638700075654 477 0 1 238 238
vector 15  LispSyncTest.Host2.ethg$o[0].channel  busy:vector  ETV
attr interpolationmode sample-hold
attr source channelBusy
15	241085 10968 0 47637 0 299.876647392961 381 0 1 190 190
vector 2  LispSyncTest.xTR1.ethg$o[0].channel  busy:vector  ETV
attr interpolationmode sample-hold
attr source channelBusy
2	45426 3287 0 10228 0 118.692422394397 127 0 1 63 63
vector 8  LispSyncTest.xTR1.ethg$o[1].channel  busy:vector  ETV
attr interpolationmode sample-hold
attr source channelBusy
8	34730 7419 0 10279 0 118.692464834396 285 0 1 142 142
vector 16  LispSyncTest.xTR1.ethg$o[2].channel  busy:vector  ETV
attr interpolationmode sample-hold
attr source channelBusy
16	34310 208 0 1320 0 10.76687079616 9 0 1 4 4
vector 4  LispSyncTest.xTR2.ethg$o[0].channel  busy:vector  ETV
attr interpolationmode sample-hold
attr source channelBusy
4	73271 12765 0 35837 0 248.000042659997 461 0 1 230 230
vector 10  LispSyncTest.xTR2.ethg$o[1].channel  busy:vector  ETV
attr interpolationmode sample-hold
attr source channelBusy
10	136867 16188 0 47710 0 299.876710092959 563 0 1 281 281
vector 17  LispSyncTest.xTR2.ethg$o[2].channel  busy:vector  ETV
attr interpolationmode sample-hold
attr source channelBusy
17	34518 212 0 1194 0 9.637899284454 9 0 1 4 4
vector 1  LispSyncTest.MRMS.ethg$o[0].channel  busy:vector  ETV
attr interpolationmode sample-hold
attr source channelBusy
1	70150 3121 0 35213 0 246.200922450285 115 0 1 57 57
vector 0  LispSyncTest.Core.ethg$o[0].channel  busy:vector  ETV
attr interpolationmode sample-hold
attr source channelBusy
0	66707 3443 0 35200 0 246.200915600285 127 0 1 63 63
vector 5  LispSyncTest.Core.ethg$o[2].channel  busy:vector  ETV
attr interpolationmode sample-hold
attr source channelBusy
5	86036 11121 0 47695 0 299.87670092296 403 0 1 201 201
vector 6  LispSyncTest.Core.ethg$o[3].channel  busy:vector  ETV
attr interpolationmode sample-hold
attr source channelBusy
6	97157 19707 0 47668 0 299.87667874296 711 0 1 355 355
vector 7  LispSyncTest.xTR_Responder.ethg$o[0].channel  busy:vector  ETV
attr interpolationmode sample-hold
attr source channelBusy
7	116864 20003 0 47685 0 299.87668983296 725 0 1 362 362
vector 248  LispSyncTest.xTR1.LISP.lispMsgLogger  msg-size:vector  ETV
attr source sum(sigLispSizeSend)+sum(sigLispSizeRecv)
attr title "msg size, vector"
248	661244 3248 1 47726 0 300 109 201 5718 -1.#IND -1.#IND
vector 249  LispSyncTest.xTR1.LISP.lispMsgLogger  msg-sizesend:vector  ETV
attr source sum(sigLispSizeSend)
attr title "msg size send, vector"
249	664492 1696 1 47726 0 300 61 59 3882 120251 313785189
vector 300  LispSyncTest.xTR2.LISP.lispMsgLogger  msg-size:vector  ETV
attr source sum(sigLispSizeSend)+sum(sigLispSizeRecv)
attr title "msg size, vector"
300	804121 1815 7 35886 0 248.000051479997 64 201 3644 -1.#IND -1.#IND
vector 301  LispSyncTest.xTR2.LISP.lispMsgLogger  msg-sizesend:vector  ETV
attr source sum(sigLispSizeSend)
attr title "msg size send, vector"
301	805936 973 7 35821 0 248.000032979998 38 59 2490 48321 80852077
vector 199  LispSyncTest.xTR1.UDP  sentPk:vector(packetBytes)  ETV
attr interpolationmode none
attr source sentPk
attr title "packets sent, vector(packetBytes)"
199	556122 6670 21 47652 0 299.876655652961 227 51 102 20784 1917040
vector 251  LispSyncTest.xTR2.UDP  sentPk:vector(packetBytes)  ETV
attr interpolationmode none
attr source sentPk
attr title "packets sent, vector(packetBytes)"
251	667706 6641 23 35823 0 248.000032979998 223 51 102 20262 1853770
vector 204  LispSyncTest.xTR1.networkLayer.arp  sentReq:vector  ETV
attr title "ARP request sent, vector"
204	571049 183 29 43472 0 282.122133062204 8 1 1 8 8
vector 206  LispSyncTest.xTR1.networkLayer.arp  initiatedResolution:vector  ETV
attr title "ARP initiated resolutions, vector"
206	571232 149 29 43472 0 282.122133062204 6 1 1 6 6
vector 256  LispSyncTest.xTR2.networkLayer.arp  sentReq:vector  ETV
attr title "ARP request sent, vector"
256	686579 147 31 36095 0 248.922955599903 6 1 1 6 6
vector 258  LispSyncTest.xTR2.networkLayer.arp  initiatedResolution:vector  ETV
attr title "ARP initiated resolutions, vector"
258	686726 147 31 36095 0 248.922955599903 6 1 1 6 6
vector 218  LispSyncTest.xTR1.eth[0].encap  encapPk:vector(packetBytes)  ETV
attr interpolationmode none
attr source encapPk
attr title "packets encapsulated, vector(packetBytes)"
218	594009 7070 35 47656 0 299.876655652961 233 28 122 25256 2810524
vector 270  LispSyncTest.xTR2.eth[0].encap  encapPk:vector(packetBytes)  ETV
attr interpolationmode none
attr source encapPk
attr title "packets encapsulated, vector(packetBytes)"
270	713996 7067 36 35831 0 248.000032979998 230 28 122 24966 2762202
vector 214  LispSyncTest.xTR1.eth[0].mac  rxPkFromHL:vector(packetBytes)  ETV
attr interpolationmode none
attr source rxPkFromHL
attr title "packet bytes from higher layer, vector(packetBytes)"
214	587099 6910 37 47657 0 299.876655652961 224 64 140 28642 3703220
vector 266  LispSyncTest.xTR2.eth[0].mac  rxPkFromHL:vector(packetBytes)  ETV
attr interpolationmode none
attr source rxPkFromHL
attr title "packet bytes from higher layer, vector(packetBytes)"
266	706919 7077 38 35833 0 248.000032979998 230 64 140 29184 3744366
vector 209  LispSyncTest.xTR1.eth[0].mac  txPk:vector(packetBytes)  ETV
attr interpolationmode none
attr source txPk
attr title "packets transmitted, vector(packetBytes)"
209	571476 7027 41 47660 0.000006719999 299.87666765296 224 64 140 28642 3703220
vector 261  LispSyncTest.xTR2.eth[0].mac  txPk:vector(packetBytes)  ETV
attr interpolationmode none
attr source txPk
attr title "packets transmitted, vector(packetBytes)"
261	686951 7288 42 35855 0.000006719999 248.000042659997 230 64 140 29184 3744366
vector 353  LispSyncTest.Core.eth[1].mac  rxPkOk:vector(packetBytes)  ETV
attr interpolationmode none
attr source rxPkOk
attr title "packets received OK, vector(packetBytes)"
353	848567 7027 43 47661 0.000006769999 299.87666770296 224 64 140 28642 3703220
vector 354  LispSyncTest.Core.eth[1].mac  passedUpPk:vector(packetBytes)  ETV
attr interpolationmode none
attr source packetSentToUpper
attr title "packets passed to higher layer, vector(packetBytes)"
354	855594 7027 43 47661 0.000006769999 299.87666770296 224 64 140 28642 3703220
vector 365  LispSyncTest.Core.eth[2].mac  rxPkOk:vector(packetBytes)  ETV
attr interpolationmode none
attr source rxPkOk
attr title "packets received OK, vector(packetBytes)"
365	887507 7288 44 35857 0.000006769999 248.000042709997 230 64 140 29184 3744366
vector 366  LispSyncTest.Core.eth[2].mac  passedUpPk:vector(packetBytes)  ETV
attr interpolationmode none
attr source packetSentToUpper
attr title "packets passed to higher layer, vector(packetBytes)"
366	894795 7288 44 35857 0.000006769999 248.000042709997 230 64 140 29184 3744366
vector 362  LispSyncTest.Core.eth[1].encap  decapPk:vector(packetBytes)  ETV
attr interpolationmode none
attr source decapPk
attr title "packets decapsulated, vector(packetBytes)"
362	874146 7021 45 47662 0.000006769999 299.87666770296 224 28 122 24532 2738624
vector 374  LispSyncTest.Core.eth[2].encap  decapPk:vector(packetBytes)  ETV
attr interpolationmode none
attr source decapPk
attr title "packets decapsulated, vector(packetBytes)"
374	914757 7278 46 35859 0.000006769999 248.000042709997 230 28 122 24966 2762202
vector 361  LispSyncTest.Core.eth[1].encap  encapPk:vector(packetBytes)  ETV
attr interpolationmode none
attr source encapPk
attr title "packets encapsulated, vector(packetBytes)"
361	866919 7227 55 47599 0.000006769999 299.638742565653 231 28 112 20768 2106092
vector 373  LispSyncTest.Core.eth[2].encap  encapPk:vector(packetBytes)  ETV
attr interpolationmode none
attr source encapPk
attr title "packets encapsulated, vector(packetBytes)"
373	908423 6334 56 47694 0.000006769999 299.87668988296 201 28 112 21230 2304114
vector 357  LispSyncTest.Core.eth[1].mac  rxPkFromHL:vector(packetBytes)  ETV
attr interpolationmode none
attr source rxPkFromHL
attr title "packet bytes from higher layer, vector(packetBytes)"
357	862621 4298 57 47600 0.000006769999 299.638742565653 138 64 130 15546 1833396
vector 369  LispSyncTest.Core.eth[2].mac  rxPkFromHL:vector(packetBytes)  ETV
attr interpolationmode none
attr source rxPkFromHL
attr title "packet bytes from higher layer, vector(packetBytes)"
369	902083 6340 58 47695 0.000006769999 299.87668988296 201 64 130 24902 3139458
vector 352  LispSyncTest.Core.eth[1].mac  txPk:vector(packetBytes)  ETV
attr interpolationmode none
attr source txPk
attr title "packets transmitted, vector(packetBytes)"
352	844269 4298 59 47602 0.000012529999 299.638753605653 138 64 130 15546 1833396
vector 364  LispSyncTest.Core.eth[2].mac  txPk:vector(packetBytes)  ETV
attr interpolationmode none
attr source txPk
attr title "packets transmitted, vector(packetBytes)"
364	881167 6340 60 47697 0.000012529999 299.87670092296 201 64 130 24902 3139458
vector 210  LispSyncTest.xTR1.eth[0].mac  rxPkOk:vector(packetBytes)  ETV
attr interpolationmode none
attr source rxPkOk
attr title "packets received OK, vector(packetBytes)"
210	578503 4298 61 47603 0.000012579999 299.638753655653 138 64 130 15546 1833396
vector 211  LispSyncTest.xTR1.eth[0].mac  passedUpPk:vector(packetBytes)  ETV
attr interpolationmode none
attr source packetSentToUpper
attr title "packets passed to higher layer, vector(packetBytes)"
211	582801 4298 61 47603 0.000012579999 299.638753655653 138 64 130 15546 1833396
vector 262  LispSyncTest.xTR2.eth[0].mac  rxPkOk:vector(packetBytes)  ETV
attr interpolationmode none
attr source rxPkOk
attr title "packets received OK, vector(packetBytes)"
262	694239 6340 62 47698 0.000012579999 299.87670097296 201 64 130 24902 3139458
vector 263  LispSyncTest.xTR2.eth[0].mac  passedUpPk:vector(packetBytes)  ETV
attr interpolationmode none
attr source packetSentToUpper
attr title "packets passed to higher layer, vector(packetBytes)"
263	700579 6340 62 47698 0.000012579999 299.87670097296 201 64 130 24902 3139458
vector 219  LispSyncTest.xTR1.eth[0].encap  decapPk:vector(packetBytes)  ETV
attr interpolationmode none
attr source decapPk
attr title "packets decapsulated, vector(packetBytes)"
219	601079 4292 63 47604 0.000012579999 299.638753655653 138 28 112 13008 1314456
vector 271  LispSyncTest.xTR2.eth[0].encap  decapPk:vector(packetBytes)  ETV
attr interpolationmode none
attr source decapPk
attr title "packets decapsulated, vector(packetBytes)"
271	721063 6334 64 47699 0.000012579999 299.87670097296 201 28 112 21230 2304114
vector 252  LispSyncTest.xTR2.UDP  rcvdPk:vector(packetBytes)  ETV
attr interpolationmode none
attr source rcvdPk
attr title "packets received, vector(packetBytes)"
252	674347 6071 117 47702 0.000031719998 299.87670097296 198 39 92 17186 1535122
vector 253  LispSyncTest.xTR2.UDP  passedUpPk:vector(count)  ETV
attr interpolationmode none
attr title "packets passed up, vector(count)"
253	680418 6161 117 47702 0.000031719998 299.87670097296 198 1 198 19701 2607099
vector 200  LispSyncTest.xTR1.UDP  rcvdPk:vector(packetBytes)  ETV
attr interpolationmode none
attr source rcvdPk
attr title "packets received, vector(packetBytes)"
200	562792 4115 118 47607 0.000031719998 299.638753655653 135 39 92 10224 849144
vector 201  LispSyncTest.xTR1.UDP  passedUpPk:vector(count)  ETV
attr interpolationmode none
attr title "packets passed up, vector(count)"
201	566907 4142 118 47607 0.000031719998 299.638753655653 135 1 135 9180 829260
vector 302  LispSyncTest.xTR2.LISP.lispMsgLogger  msg-sizerecv:vector  ETV
attr source sum(sigLispSizeRecv)
attr title "msg size recieved, vector"
302	806909 810 119 35886 0.000031719998 248.000051479997 26 59 1154 16469 12689017
vector 250  LispSyncTest.xTR1.LISP.lispMsgLogger  msg-sizerecv:vector  ETV
attr source sum(sigLispSizeRecv)
attr title "msg size recieved, vector"
250	666188 1518 120 35885 0.000031719998 248.000051479997 48 59 1836 47148 56752872
vector 208  LispSyncTest.xTR1.networkLayer6.neighbourDiscovery  startDAD:vector  ETV
attr title "DAD started, vector"
208	571398 78 253 253 0.107852370617 0.107852370617 3 1 1 3 3
vector 230  LispSyncTest.xTR1.eth[1].encap  encapPk:vector(packetBytes)  ETV
attr interpolationmode none
attr source encapPk
attr title "packets encapsulated, vector(packetBytes)"
230	635805 7778 261 47612 0.107852370617 299.638753655653 292 20 76 10848 592000
vector 242  LispSyncTest.xTR1.eth[2].encap  encapPk:vector(packetBytes)  ETV
attr interpolationmode none
attr source encapPk
attr title "packets encapsulated, vector(packetBytes)"
242	650961 110 262 1318 0.107852370617 10.766864076161 4 40 40 160 6400
vector 226  LispSyncTest.xTR1.eth[1].mac  rxPkFromHL:vector(packetBytes)  ETV
attr interpolationmode none
attr source rxPkFromHL
attr title "packet bytes from higher layer, vector(packetBytes)"
226	628027 7778 264 47613 0.107852370617 299.638753655653 292 64 94 21298 1608412
vector 238  LispSyncTest.xTR1.eth[2].mac  rxPkFromHL:vector(packetBytes)  ETV
attr interpolationmode none
attr source rxPkFromHL
attr title "packet bytes from higher layer, vector(packetBytes)"
238	650851 110 265 1319 0.107852370617 10.766864076161 4 64 64 256 16384
vector 221  LispSyncTest.xTR1.eth[1].mac  txPk:vector(packetBytes)  ETV
attr interpolationmode none
attr source txPk
attr title "packets transmitted, vector(packetBytes)"
221	605371 8770 271 47617 0.107859090616 299.638762775652 292 64 94 21298 1608412
vector 233  LispSyncTest.xTR1.eth[2].mac  txPk:vector(packetBytes)  ETV
attr interpolationmode none
attr source txPk
attr title "packets transmitted, vector(packetBytes)"
233	650526 107 272 1321 0.107859090616 10.76687079616 4 64 64 256 16384
vector 286  LispSyncTest.xTR2.eth[2].mac  rxPkOk:vector(packetBytes)  ETV
attr interpolationmode none
attr source rxPkOk
attr title "packets received OK, vector(packetBytes)"
286	791472 107 274 1322 0.107859140616 10.76687084616 4 64 64 256 16384
vector 287  LispSyncTest.xTR2.eth[2].mac  passedUpPk:vector(packetBytes)  ETV
attr interpolationmode none
attr source packetSentToUpper
attr title "packets passed to higher layer, vector(packetBytes)"
287	791579 107 274 1322 0.107859140616 10.76687084616 4 64 64 256 16384
vector 22  LispSyncTest.SW.eth[0].mac  rxPkOk:vector(packetBytes)  ETV
attr interpolationmode none
attr source rxPkOk
attr title "packets received OK, vector(packetBytes)"
22	258767 8478 275 47618 0.107859140616 299.638762825652 292 64 94 21298 1608412
vector 23  LispSyncTest.SW.eth[0].mac  passedUpPk:vector(packetBytes)  ETV
attr interpolationmode none
attr source packetSentToUpper
attr title "packets passed to higher layer, vector(packetBytes)"
23	267245 8478 275 47618 0.107859140616 299.638762825652 292 64 94 21298 1608412
vector 295  LispSyncTest.xTR2.eth[2].encap  decapPk:vector(packetBytes)  ETV
attr interpolationmode none
attr source decapPk
attr title "packets decapsulated, vector(packetBytes)"
295	791904 107 277 1323 0.107859140616 10.76687084616 4 40 40 160 6400
vector 476  LispSyncTest.SW.relayUnit  "buffer level"  ETV
476	1113813 60065 278 47715 0.107859140616 299.876710142959 2002 0 94 84134 7271156
vector 37  LispSyncTest.SW.eth[1].mac  rxPkFromHL:vector(packetBytes)  ETV
attr interpolationmode none
attr source rxPkFromHL
attr title "packet bytes from higher layer, vector(packetBytes)"
37	311430 12253 283 47512 0.107859140616 299.492194269999 418 64 94 32722 2655388
vector 48  LispSyncTest.SW.eth[2].mac  rxPkFromHL:vector(packetBytes)  ETV
attr interpolationmode none
attr source rxPkFromHL
attr title "packet bytes from higher layer, vector(packetBytes)"
48	351469 13756 284 47621 0.107859140616 299.638762825652 470 64 94 34580 2636120
vector 59  LispSyncTest.SW.eth[3].mac  rxPkFromHL:vector(packetBytes)  ETV
attr interpolationmode none
attr source rxPkFromHL
attr title "packet bytes from higher layer, vector(packetBytes)"
59	389087 12524 285 47716 0.107859140616 299.876710142959 427 64 94 30598 2265652
vector 32  LispSyncTest.SW.eth[1].mac  txPk:vector(packetBytes)  ETV
attr interpolationmode none
attr source txPk
attr title "packets transmitted, vector(packetBytes)"
32	282437 12253 287 47516 0.107864900616 299.492200029999 418 64 94 32722 2655388
vector 43  LispSyncTest.SW.eth[2].mac  txPk:vector(packetBytes)  ETV
attr interpolationmode none
attr source txPk
attr title "packets transmitted, vector(packetBytes)"
43	323683 13756 288 47623 0.107864900616 299.638770985652 470 64 94 34580 2636120
vector 54  LispSyncTest.SW.eth[3].mac  txPk:vector(packetBytes)  ETV
attr interpolationmode none
attr source txPk
attr title "packets transmitted, vector(packetBytes)"
54	365225 12524 289 47718 0.107864900616 299.876718302959 427 64 94 30598 2265652
vector 274  LispSyncTest.xTR2.eth[1].mac  rxPkOk:vector(packetBytes)  ETV
attr interpolationmode none
attr source rxPkOk
attr title "packets received OK, vector(packetBytes)"
274	736048 12671 290 47519 0.107864950616 299.492200079999 418 64 94 32722 2655388
vector 275  LispSyncTest.xTR2.eth[1].mac  passedUpPk:vector(packetBytes)  ETV
attr interpolationmode none
attr source packetSentToUpper
attr title "packets passed to higher layer, vector(packetBytes)"
275	748719 12671 290 47519 0.107864950616 299.492200079999 418 64 94 32722 2655388
vector 121  LispSyncTest.Host1.eth[0].mac  rxPkOk:vector(packetBytes)  ETV
attr interpolationmode none
attr source rxPkOk
attr title "packets received OK, vector(packetBytes)"
121	427853 14226 291 47624 0.107864950616 299.638771035652 470 64 94 34580 2636120
vector 122  LispSyncTest.Host1.eth[0].mac  passedUpPk:vector(packetBytes)  ETV
attr interpolationmode none
attr source packetSentToUpper
attr title "packets passed to higher layer, vector(packetBytes)"
122	442079 14226 291 47624 0.107864950616 299.638771035652 470 64 94 34580 2636120
vector 188  LispSyncTest.Host2.eth[0].mac  rxPkOk:vector(packetBytes)  ETV
attr interpolationmode none
attr source rxPkOk
attr title "packets received OK, vector(packetBytes)"
188	505551 12951 292 47719 0.107864950616 299.876718352959 427 64 94 30598 2265652
vector 189  LispSyncTest.Host2.eth[0].mac  passedUpPk:vector(packetBytes)  ETV
attr interpolationmode none
attr source packetSentToUpper
attr title "packets passed to higher layer, vector(packetBytes)"
189	518502 12951 292 47719 0.107864950616 299.876718352959 427 64 94 30598 2265652
vector 283  LispSyncTest.xTR2.eth[1].encap  decapPk:vector(packetBytes)  ETV
attr interpolationmode none
attr source decapPk
attr title "packets decapsulated, vector(packetBytes)"
283	778692 12671 293 47522 0.107864950616 299.492200079999 418 20 76 19848 1256416
vector 130  LispSyncTest.Host1.eth[0].encap  decapPk:vector(packetBytes)  ETV
attr interpolationmode none
attr source decapPk
attr title "packets decapsulated, vector(packetBytes)"
130	470811 14226 294 47625 0.107864950616 299.638771035652 470 20 76 18160 1014560
vector 197  LispSyncTest.Host2.eth[0].encap  decapPk:vector(packetBytes)  ETV
attr interpolationmode none
attr source decapPk
attr title "packets decapsulated, vector(packetBytes)"
197	543171 12951 295 47720 0.107864950616 299.876718352959 427 20 76 14988 776176
vector 312  LispSyncTest.MRMS.networkLayer6.neighbourDiscovery  startDAD:vector  ETV
attr title "DAD started, vector"
312	812986 26 305 305 0.131109585799 0.131109585799 1 1 1 1 1
vector 322  LispSyncTest.MRMS.eth[0].encap  encapPk:vector(packetBytes)  ETV
attr interpolationmode none
attr source encapPk
attr title "packets encapsulated, vector(packetBytes)"
322	820408 1727 308 35212 0.131109585799 246.200915650285 57 28 71 3237 187059
vector 318  LispSyncTest.MRMS.eth[0].mac  rxPkFromHL:vector(packetBytes)  ETV
attr interpolationmode none
attr source rxPkFromHL
attr title "packet bytes from higher layer, vector(packetBytes)"
318	818681 1727 309 35213 0.131109585799 246.200915650285 57 64 89 4323 328947
vector 313  LispSyncTest.MRMS.eth[0].mac  txPk:vector(packetBytes)  ETV
attr interpolationmode none
attr source txPk
attr title "packets transmitted, vector(packetBytes)"
313	813012 1727 310 35215 0.131115345799 246.200922450285 57 64 89 4323 328947
vector 341  LispSyncTest.Core.eth[0].mac  rxPkOk:vector(packetBytes)  ETV
attr interpolationmode none
attr source rxPkOk
attr title "packets received OK, vector(packetBytes)"
341	835146 1727 311 35216 0.131115395799 246.200922500285 57 64 89 4323 328947
vector 342  LispSyncTest.Core.eth[0].mac  passedUpPk:vector(packetBytes)  ETV
attr interpolationmode none
attr source packetSentToUpper
attr title "packets passed to higher layer, vector(packetBytes)"
342	836873 1727 311 35216 0.131115395799 246.200922500285 57 64 89 4323 328947
vector 350  LispSyncTest.Core.eth[0].encap  decapPk:vector(packetBytes)  ETV
attr interpolationmode none
attr source decapPk
attr title "packets decapsulated, vector(packetBytes)"
350	842542 1727 312 35217 0.131115395799 246.200922500285 57 28 71 3237 187059
vector 260  LispSyncTest.xTR2.networkLayer6.neighbourDiscovery  startDAD:vector  ETV
attr title "DAD started, vector"
260	686873 78 315 315 0.183919038553 0.183919038553 3 1 1 3 3
vector 282  LispSyncTest.xTR2.eth[1].encap  encapPk:vector(packetBytes)  ETV
attr interpolationmode none
attr source encapPk
attr title "packets encapsulated, vector(packetBytes)"
282	770041 8651 323 47707 0.183919038553 299.87670097296 281 20 76 15380 1044176
vector 294  LispSyncTest.xTR2.eth[2].encap  encapPk:vector(packetBytes)  ETV
attr interpolationmode none
attr source encapPk
attr title "packets encapsulated, vector(packetBytes)"
294	791795 109 324 1192 0.183919038553 9.637892564455 4 40 40 160 6400
vector 278  LispSyncTest.xTR2.eth[1].mac  rxPkFromHL:vector(packetBytes)  ETV
attr interpolationmode none
attr source rxPkFromHL
attr title "packet bytes from higher layer, vector(packetBytes)"
278	761390 8651 326 47708 0.183919038553 299.87670097296 281 64 94 23144 1966256
vector 290  LispSyncTest.xTR2.eth[2].mac  rxPkFromHL:vector(packetBytes)  ETV
attr interpolationmode none
attr source rxPkFromHL
attr title "packet bytes from higher layer, vector(packetBytes)"
290	791686 109 327 1193 0.183919038553 9.637892564455 4 64 64 256 16384
vector 273  LispSyncTest.xTR2.eth[1].mac  txPk:vector(packetBytes)  ETV
attr interpolationmode none
attr source txPk
attr title "packets transmitted, vector(packetBytes)"
273	727397 8651 333 47712 0.183925758552 299.876710092959 281 64 94 23144 1966256
vector 285  LispSyncTest.xTR2.eth[2].mac  txPk:vector(packetBytes)  ETV
attr interpolationmode none
attr source txPk
attr title "packets transmitted, vector(packetBytes)"
285	791363 109 334 1195 0.183925758552 9.637899284454 4 64 64 256 16384
vector 234  LispSyncTest.xTR1.eth[2].mac  rxPkOk:vector(packetBytes)  ETV
attr interpolationmode none
attr source rxPkOk
attr title "packets received OK, vector(packetBytes)"
234	650633 109 336 1196 0.183925808552 9.637899334454 4 64 64 256 16384
vector 235  LispSyncTest.xTR1.eth[2].mac  passedUpPk:vector(packetBytes)  ETV
attr interpolationmode none
attr source packetSentToUpper
attr title "packets passed to higher layer, vector(packetBytes)"
235	650742 109 336 1196 0.183925808552 9.637899334454 4 64 64 256 16384
vector 33  LispSyncTest.SW.eth[1].mac  rxPkOk:vector(packetBytes)  ETV
attr interpolationmode none
attr source rxPkOk
attr title "packets received OK, vector(packetBytes)"
33	294690 8370 337 47713 0.183925808552 299.876710142959 281 64 94 23144 1966256
vector 34  LispSyncTest.SW.eth[1].mac  passedUpPk:vector(packetBytes)  ETV
attr interpolationmode none
attr source packetSentToUpper
attr title "packets passed to higher layer, vector(packetBytes)"
34	303060 8370 337 47713 0.183925808552 299.876710142959 281 64 94 23144 1966256
vector 243  LispSyncTest.xTR1.eth[2].encap  decapPk:vector(packetBytes)  ETV
attr interpolationmode none
attr source decapPk
attr title "packets decapsulated, vector(packetBytes)"
243	651071 109 339 1197 0.183925808552 9.637899334454 4 40 40 160 6400
vector 26  LispSyncTest.SW.eth[0].mac  rxPkFromHL:vector(packetBytes)  ETV
attr interpolationmode none
attr source rxPkFromHL
attr title "packet bytes from higher layer, vector(packetBytes)"
26	275723 6714 345 47643 0.183925808552 299.876647442961 229 64 94 20746 1900204
vector 21  LispSyncTest.SW.eth[0].mac  txPk:vector(packetBytes)  ETV
attr interpolationmode none
attr source txPk
attr title "packets transmitted, vector(packetBytes)"
21	252053 6714 349 47646 0.183931568552 299.876655602961 229 64 94 20746 1900204
vector 222  LispSyncTest.xTR1.eth[1].mac  rxPkOk:vector(packetBytes)  ETV
attr interpolationmode none
attr source rxPkOk
attr title "packets received OK, vector(packetBytes)"
222	614141 6943 352 47647 0.183931618552 299.876655652961 229 64 94 20746 1900204
vector 223  LispSyncTest.xTR1.eth[1].mac  passedUpPk:vector(packetBytes)  ETV
attr interpolationmode none
attr source packetSentToUpper
attr title "packets passed to higher layer, vector(packetBytes)"
223	621084 6943 352 47647 0.183931618552 299.876655652961 229 64 94 20746 1900204
vector 231  LispSyncTest.xTR1.eth[1].encap  decapPk:vector(packetBytes)  ETV
attr interpolationmode none
attr source decapPk
attr title "packets decapsulated, vector(packetBytes)"
231	643583 6943 355 47648 0.183931618552 299.876655652961 229 20 76 16236 1199632
vector 397  LispSyncTest.xTR_Responder.networkLayer6.neighbourDiscovery  startDAD:vector  ETV
attr title "DAD started, vector"
397	1023114 26 367 367 0.270704573462 0.270704573462 1 1 1 1 1
vector 407  LispSyncTest.xTR_Responder.eth[0].encap  encapPk:vector(packetBytes)  ETV
attr interpolationmode none
attr source encapPk
attr title "packets encapsulated, vector(packetBytes)"
407	1068558 11425 370 47684 0.270704573462 299.87667879296 362 28 1048 43827 8815577
vector 403  LispSyncTest.xTR_Responder.eth[0].mac  rxPkFromHL:vector(packetBytes)  ETV
attr interpolationmode none
attr source rxPkFromHL
attr title "packet bytes from higher layer, vector(packetBytes)"
403	1057133 11425 371 47685 0.270704573462 299.87667879296 362 64 1066 50403 10517525
vector 398  LispSyncTest.xTR_Responder.eth[0].mac  txPk:vector(packetBytes)  ETV
attr interpolationmode none
attr source txPk
attr title "packets transmitted, vector(packetBytes)"
398	1023140 11461 372 47687 0.270710333462 299.87668983296 362 64 1066 50403 10517525
vector 377  LispSyncTest.Core.eth[3].mac  rxPkOk:vector(packetBytes)  ETV
attr interpolationmode none
attr source rxPkOk
attr title "packets received OK, vector(packetBytes)"
377	933301 11461 373 47688 0.270710383462 299.87668988296 362 64 1066 50403 10517525
vector 378  LispSyncTest.Core.eth[3].mac  passedUpPk:vector(packetBytes)  ETV
attr interpolationmode none
attr source packetSentToUpper
attr title "packets passed to higher layer, vector(packetBytes)"
378	944762 11461 373 47688 0.270710383462 299.87668988296 362 64 1066 50403 10517525
vector 386  LispSyncTest.Core.eth[3].encap  decapPk:vector(packetBytes)  ETV
attr interpolationmode none
attr source decapPk
attr title "packets decapsulated, vector(packetBytes)"
386	978755 11461 374 47689 0.270710383462 299.87668988296 362 28 1048 43827 8815577
vector 186  LispSyncTest.Host2.networkLayer6.neighbourDiscovery  startDAD:vector  ETV
attr title "DAD started, vector"
186	499666 26 377 377 0.669969993736 0.669969993736 1 1 1 1 1
vector 196  LispSyncTest.Host2.eth[0].encap  encapPk:vector(packetBytes)  ETV
attr interpolationmode none
attr source encapPk
attr title "packets encapsulated, vector(packetBytes)"
196	537312 5859 380 47636 0.669969993736 299.876639232961 190 28 76 14008 1050784
vector 192  LispSyncTest.Host2.eth[0].mac  rxPkFromHL:vector(packetBytes)  ETV
attr interpolationmode none
attr source rxPkFromHL
attr title "packet bytes from higher layer, vector(packetBytes)"
192	531453 5859 381 47637 0.669969993736 299.876639232961 190 64 94 17560 1631440
vector 187  LispSyncTest.Host2.eth[0].mac  txPk:vector(packetBytes)  ETV
attr interpolationmode none
attr source txPk
attr title "packets transmitted, vector(packetBytes)"
187	499692 5859 383 47639 0.669975753736 299.876647392961 190 64 94 17560 1631440
vector 55  LispSyncTest.SW.eth[3].mac  rxPkOk:vector(packetBytes)  ETV
attr interpolationmode none
attr source rxPkOk
attr title "packets received OK, vector(packetBytes)"
55	377749 5669 384 47640 0.669975803736 299.876647442961 190 64 94 17560 1631440
vector 56  LispSyncTest.SW.eth[3].mac  passedUpPk:vector(packetBytes)  ETV
attr interpolationmode none
attr source packetSentToUpper
attr title "packets passed to higher layer, vector(packetBytes)"
56	383418 5669 384 47640 0.669975803736 299.876647442961 190 64 94 17560 1631440
vector 119  LispSyncTest.Host1.networkLayer6.neighbourDiscovery  startDAD:vector  ETV
attr title "DAD started, vector"
119	420574 26 410 410 0.809092178707 0.809092178707 1 1 1 1 1