file 848155 1424099931                                          
version 2
run CacheSyncSmart-0-20150216-16:16:09-4672
attr configname CacheSyncSmart
attr datetime 20150216-16:16:09
attr experiment CacheSyncSmart
attr inifile omnetpp.ini
attr iterationvars ""
attr iterationvars2 $repetition=0
attr measurement ""
attr network LispTestbed
attr processid 4672
attr repetition 0
attr replication #0
attr resultdir results
attr runnumber 0
attr seedset 0

vector 9  LispTestbed.SW.ethg$o[0].channel  busy:vector  ETV
attr interpolationmode  sample-hold
attr source  channelBusy
vector 11  LispTestbed.SW.ethg$o[1].channel  busy:vector  ETV
attr interpolationmode  sample-hold
attr source  channelBusy
vector 12  LispTestbed.SW.ethg$o[2].channel  busy:vector  ETV
attr interpolationmode  sample-hold
attr source  channelBusy
vector 14  LispTestbed.SW.ethg$o[3].channel  busy:vector  ETV
attr interpolationmode  sample-hold
attr source  channelBusy
vector 13  LispTestbed.Host1.ethg$o[0].channel  busy:vector  ETV
attr interpolationmode  sample-hold
attr source  channelBusy
vector 15  LispTestbed.Host2.ethg$o[0].channel  busy:vector  ETV
attr interpolationmode  sample-hold
attr source  channelBusy
vector 2  LispTestbed.xTR1.ethg$o[0].channel  busy:vector  ETV
attr interpolationmode  sample-hold
attr source  channelBusy
vector 8  LispTestbed.xTR1.ethg$o[1].channel  busy:vector  ETV
attr interpolationmode  sample-hold
attr source  channelBusy
vector 16  LispTestbed.xTR1.ethg$o[2].channel  busy:vector  ETV
attr interpolationmode  sample-hold
attr source  channelBusy
vector 4  LispTestbed.xTR2.ethg$o[0].channel  busy:vector  ETV
attr interpolationmode  sample-hold
attr source  channelBusy
vector 10  LispTestbed.xTR2.ethg$o[1].channel  busy:vector  ETV
attr interpolationmode  sample-hold
attr source  channelBusy
vector 17  LispTestbed.xTR2.ethg$o[2].channel  busy:vector  ETV
attr interpolationmode  sample-hold
attr source  channelBusy
vector 1  LispTestbed.MRMS.ethg$o[0].channel  busy:vector  ETV
attr interpolationmode  sample-hold
attr source  channelBusy
vector 0  LispTestbed.Core.ethg$o[0].channel  busy:vector  ETV
attr interpolationmode  sample-hold
attr source  channelBusy
vector 3  LispTestbed.Core.ethg$o[1].channel  busy:vector  ETV
attr interpolationmode  sample-hold
attr source  channelBusy
vector 5  LispTestbed.Core.ethg$o[2].channel  busy:vector  ETV
attr interpolationmode  sample-hold
attr source  channelBusy
vector 6  LispTestbed.Core.ethg$o[3].channel  busy:vector  ETV
attr interpolationmode  sample-hold
attr source  channelBusy
vector 7  LispTestbed.xTR_Responder.ethg$o[0].channel  busy:vector  ETV
attr interpolationmode  sample-hold
attr source  channelBusy
vector 248  LispTestbed.xTR1.LISP.lispMsgLogger  msg-size:vector  ETV
attr source  sum(sigLispSizeSend)+sum(sigLispSizeRecv)
attr title  "msg, vector"
vector 249  LispTestbed.xTR1.LISP.lispMsgLogger  msg-sizesend:vector  ETV
attr source  sum(sigLispSizeSend)
attr title  "msg size send, vector"
vector 300  LispTestbed.xTR2.LISP.lispMsgLogger  msg-size:vector  ETV
attr source  sum(sigLispSizeSend)+sum(sigLispSizeRecv)
attr title  "msg, vector"
vector 301  LispTestbed.xTR2.LISP.lispMsgLogger  msg-sizesend:vector  ETV
attr source  sum(sigLispSizeSend)
attr title  "msg size send, vector"
vector 199  LispTestbed.xTR1.UDP  sentPk:vector(packetBytes)  ETV
attr interpolationmode  none
attr source  sentPk
attr title  "packets sent, vector(packetBytes)"
vector 251  LispTestbed.xTR2.UDP  sentPk:vector(packetBytes)  ETV
attr interpolationmode  none
attr source  sentPk
attr title  "packets sent, vector(packetBytes)"
vector 204  LispTestbed.xTR1.networkLayer.arp  sentReq:vector  ETV
attr title  "ARP request sent, vector"
vector 206  LispTestbed.xTR1.networkLayer.arp  initiatedResolution:vector  ETV
attr title  "ARP initiated resolutions, vector"
vector 256  LispTestbed.xTR2.networkLayer.arp  sentReq:vector  ETV
attr title  "ARP request sent, vector"
vector 258  LispTestbed.xTR2.networkLayer.arp  initiatedResolution:vector  ETV
attr title  "ARP initiated resolutions, vector"
vector 218  LispTestbed.xTR1.eth[0].encap  encapPk:vector(packetBytes)  ETV
attr interpolationmode  none
attr source  encapPk
attr title  "packets encapsulated, vector(packetBytes)"
vector 270  LispTestbed.xTR2.eth[0].encap  encapPk:vector(packetBytes)  ETV
attr interpolationmode  none
attr source  encapPk
attr title  "packets encapsulated, vector(packetBytes)"
vector 214  LispTestbed.xTR1.eth[0].mac  rxPkFromHL:vector(packetBytes)  ETV
attr interpolationmode  none
attr source  rxPkFromHL
attr title  "packet bytes from higher layer, vector(packetBytes)"
vector 266  LispTestbed.xTR2.eth[0].mac  rxPkFromHL:vector(packetBytes)  ETV
attr interpolationmode  none
attr source  rxPkFromHL
attr title  "packet bytes from higher layer, vector(packetBytes)"
vector 209  LispTestbed.xTR1.eth[0].mac  txPk:vector(packetBytes)  ETV
attr interpolationmode  none
attr source  txPk
attr title  "packets transmitted, vector(packetBytes)"
vector 261  LispTestbed.xTR2.eth[0].mac  txPk:vector(packetBytes)  ETV
attr interpolationmode  none
attr source  txPk
attr title  "packets transmitted, vector(packetBytes)"
vector 353  LispTestbed.Core.eth[1].mac  rxPkOk:vector(packetBytes)  ETV
attr interpolationmode  none
attr source  rxPkOk
attr title  "packets received OK, vector(packetBytes)"
vector 354  LispTestbed.Core.eth[1].mac  passedUpPk:vector(packetBytes)  ETV
attr interpolationmode  none
attr source  packetSentToUpper
attr title  "packets passed to higher layer, vector(packetBytes)"
vector 365  LispTestbed.Core.eth[2].mac  rxPkOk:vector(packetBytes)  ETV
attr interpolationmode  none
attr source  rxPkOk
attr title  "packets received OK, vector(packetBytes)"
vector 366  LispTestbed.Core.eth[2].mac  passedUpPk:vector(packetBytes)  ETV
attr interpolationmode  none
attr source  packetSentToUpper
attr title  "packets passed to higher layer, vector(packetBytes)"
vector 362  LispTestbed.Core.eth[1].encap  decapPk:vector(packetBytes)  ETV
attr interpolationmode  none
attr source  decapPk
attr title  "packets decapsulated, vector(packetBytes)"
vector 374  LispTestbed.Core.eth[2].encap  decapPk:vector(packetBytes)  ETV
attr interpolationmode  none
attr source  decapPk
attr title  "packets decapsulated, vector(packetBytes)"
vector 361  LispTestbed.Core.eth[1].encap  encapPk:vector(packetBytes)  ETV
attr interpolationmode  none
attr source  encapPk
attr title  "packets encapsulated, vector(packetBytes)"
vector 373  LispTestbed.Core.eth[2].encap  encapPk:vector(packetBytes)  ETV
attr interpolationmode  none
attr source  encapPk
attr title  "packets encapsulated, vector(packetBytes)"
vector 357  LispTestbed.Core.eth[1].mac  rxPkFromHL:vector(packetBytes)  ETV
attr interpolationmode  none
attr source  rxPkFromHL
attr title  "packet bytes from higher layer, vector(packetBytes)"
vector 369  LispTestbed.Core.eth[2].mac  rxPkFromHL:vector(packetBytes)  ETV
attr interpolationmode  none
attr source  rxPkFromHL
attr title  "packet bytes from higher layer, vector(packetBytes)"
vector 352  LispTestbed.Core.eth[1].mac  txPk:vector(packetBytes)  ETV
attr interpolationmode  none
attr source  txPk
attr title  "packets transmitted, vector(packetBytes)"
vector 364  LispTestbed.Core.eth[2].mac  txPk:vector(packetBytes)  ETV
attr interpolationmode  none
attr source  txPk
attr title  "packets transmitted, vector(packetBytes)"
vector 210  LispTestbed.xTR1.eth[0].mac  rxPkOk:vector(packetBytes)  ETV
attr interpolationmode  none
attr source  rxPkOk
attr title  "packets received OK, vector(packetBytes)"
vector 211  LispTestbed.xTR1.eth[0].mac  passedUpPk:vector(packetBytes)  ETV
attr interpolationmode  none
attr source  packetSentToUpper
attr title  "packets passed to higher layer, vector(packetBytes)"
vector 262  LispTestbed.xTR2.eth[0].mac  rxPkOk:vector(packetBytes)  ETV
attr interpolationmode  none
attr source  rxPkOk
attr title  "packets received OK, vector(packetBytes)"
vector 263  LispTestbed.xTR2.eth[0].mac  passedUpPk:vector(packetBytes)  ETV
attr interpolationmode  none
attr source  packetSentToUpper
attr title  "packets passed to higher layer, vector(packetBytes)"
vector 219  LispTestbed.xTR1.eth[0].encap  decapPk:vector(packetBytes)  ETV
attr interpolationmode  none
attr source  decapPk
attr title  "packets decapsulated, vector(packetBytes)"
vector 271  LispTestbed.xTR2.eth[0].encap  decapPk:vector(packetBytes)  ETV
attr interpolationmode  none
attr source  decapPk
attr title  "packets decapsulated, vector(packetBytes)"
vector 252  LispTestbed.xTR2.UDP  rcvdPk:vector(packetBytes)  ETV
attr interpolationmode  none
attr source  rcvdPk
attr title  "packets received, vector(packetBytes)"
vector 253  LispTestbed.xTR2.UDP  passedUpPk:vector(count)  ETV
attr interpolationmode  none
attr title  "packets passed up, vector(count)"
vector 200  LispTestbed.xTR1.UDP  rcvdPk:vector(packetBytes)  ETV
attr interpolationmode  none
attr source  rcvdPk
attr title  "packets received, vector(packetBytes)"
vector 201  LispTestbed.xTR1.UDP  passedUpPk:vector(count)  ETV
attr interpolationmode  none
attr title  "packets passed up, vector(count)"
vector 302  LispTestbed.xTR2.LISP.lispMsgLogger  msg-sizerecv:vector  ETV
attr source  sum(sigLispSizeRecv)
attr title  "msg size recieved, vector"
vector 250  LispTestbed.xTR1.LISP.lispMsgLogger  msg-sizerecv:vector  ETV
attr source  sum(sigLispSizeRecv)
attr title  "msg size recieved, vector"
vector 208  LispTestbed.xTR1.networkLayer6.neighbourDiscovery  startDAD:vector  ETV
attr title  "DAD started, vector"
vector 230  LispTestbed.xTR1.eth[1].encap  encapPk:vector(packetBytes)  ETV
attr interpolationmode  none
attr source  encapPk
attr title  "packets encapsulated, vector(packetBytes)"
vector 242  LispTestbed.xTR1.eth[2].encap  encapPk:vector(packetBytes)  ETV
attr interpolationmode  none
attr source  encapPk
attr title  "packets encapsulated, vector(packetBytes)"
vector 226  LispTestbed.xTR1.eth[1].mac  rxPkFromHL:vector(packetBytes)  ETV
attr interpolationmode  none
attr source  rxPkFromHL
attr title  "packet bytes from higher layer, vector(packetBytes)"
vector 238  LispTestbed.xTR1.eth[2].mac  rxPkFromHL:vector(packetBytes)  ETV
attr interpolationmode  none
attr source  rxPkFromHL
attr title  "packet bytes from higher layer, vector(packetBytes)"
vector 221  LispTestbed.xTR1.eth[1].mac  txPk:vector(packetBytes)  ETV
attr interpolationmode  none
attr source  txPk
attr title  "packets transmitted, vector(packetBytes)"
vector 233  LispTestbed.xTR1.eth[2].mac  txPk:vector(packetBytes)  ETV
attr interpolationmode  none
attr source  txPk
attr title  "packets transmitted, vector(packetBytes)"
vector 286  LispTestbed.xTR2.eth[2].mac  rxPkOk:vector(packetBytes)  ETV
attr interpolationmode  none
attr source  rxPkOk
attr title  "packets received OK, vector(packetBytes)"
vector 287  LispTestbed.xTR2.eth[2].mac  passedUpPk:vector(packetBytes)  ETV
attr interpolationmode  none
attr source  packetSentToUpper
attr title  "packets passed to higher layer, vector(packetBytes)"
vector 22  LispTestbed.SW.eth[0].mac  rxPkOk:vector(packetBytes)  ETV
attr interpolationmode  none
attr source  rxPkOk
attr title  "packets received OK, vector(packetBytes)"
vector 23  LispTestbed.SW.eth[0].mac  passedUpPk:vector(packetBytes)  ETV
attr interpolationmode  none
attr source  packetSentToUpper
attr title  "packets passed to higher layer, vector(packetBytes)"
vector 295  LispTestbed.xTR2.eth[2].encap  decapPk:vector(packetBytes)  ETV
attr interpolationmode  none
attr source  decapPk
attr title  "packets decapsulated, vector(packetBytes)"
vector 476  LispTestbed.SW.relayUnit  "buffer level"  ETV
vector 37  LispTestbed.SW.eth[1].mac  rxPkFromHL:vector(packetBytes)  ETV
attr interpolationmode  none
attr source  rxPkFromHL
attr title  "packet bytes from higher layer, vector(packetBytes)"
vector 48  LispTestbed.SW.eth[2].mac  rxPkFromHL:vector(packetBytes)  ETV
attr interpolationmode  none
attr source  rxPkFromHL
attr title  "packet bytes from higher layer, vector(packetBytes)"
vector 59  LispTestbed.SW.eth[3].mac  rxPkFromHL:vector(packetBytes)  ETV
attr interpolationmode  none
attr source  rxPkFromHL
attr title  "packet bytes from higher layer, vector(packetBytes)"
vector 32  LispTestbed.SW.eth[1].mac  txPk:vector(packetBytes)  ETV
attr interpolationmode  none
attr source  txPk
attr title  "packets transmitted, vector(packetBytes)"
vector 43  LispTestbed.SW.eth[2].mac  txPk:vector(packetBytes)  ETV
attr interpolationmode  none
attr source  txPk
attr title  "packets transmitted, vector(packetBytes)"
vector 54  LispTestbed.SW.eth[3].mac  txPk:vector(packetBytes)  ETV
attr interpolationmode  none
attr source  txPk
attr title  "packets transmitted, vector(packetBytes)"
vector 274  LispTestbed.xTR2.eth[1].mac  rxPkOk:vector(packetBytes)  ETV
attr interpolationmode  none
attr source  rxPkOk
attr title  "packets received OK, vector(packetBytes)"
vector 275  LispTestbed.xTR2.eth[1].mac  passedUpPk:vector(packetBytes)  ETV
attr interpolationmode  none
attr source  packetSentToUpper
attr title  "packets passed to higher layer, vector(packetBytes)"
vector 121  LispTestbed.Host1.eth[0].mac  rxPkOk:vector(packetBytes)  ETV
attr interpolationmode  none
attr source  rxPkOk
attr title  "packets received OK, vector(packetBytes)"
vector 122  LispTestbed.Host1.eth[0].mac  passedUpPk:vector(packetBytes)  ETV
attr interpolationmode  none
attr source  packetSentToUpper
attr title  "packets passed to higher layer, vector(packetBytes)"
vector 188  LispTestbed.Host2.eth[0].mac  rxPkOk:vector(packetBytes)  ETV
attr interpolationmode  none
attr source  rxPkOk
attr title  "packets received OK, vector(packetBytes)"
vector 189  LispTestbed.Host2.eth[0].mac  passedUpPk:vector(packetBytes)  ETV
attr interpolationmode  none
attr source  packetSentToUpper
attr title  "packets passed to higher layer, vector(packetBytes)"
vector 283  LispTestbed.xTR2.eth[1].encap  decapPk:vector(packetBytes)  ETV
attr interpolationmode  none
attr source  decapPk
attr title  "packets decapsulated, vector(packetBytes)"
vector 130  LispTestbed.Host1.eth[0].encap  decapPk:vector(packetBytes)  ETV
attr interpolationmode  none
attr source  decapPk
attr title  "packets decapsulated, vector(packetBytes)"
vector 197  LispTestbed.Host2.eth[0].encap  decapPk:vector(packetBytes)  ETV
attr interpolationmode  none
attr source  decapPk
attr title  "packets decapsulated, vector(packetBytes)"
vector 312  LispTestbed.MRMS.networkLayer6.neighbourDiscovery  startDAD:vector  ETV
attr title  "DAD started, vector"
vector 322  LispTestbed.MRMS.eth[0].encap  encapPk:vector(packetBytes)  ETV
attr interpolationmode  none
attr source  encapPk
attr title  "packets encapsulated, vector(packetBytes)"
vector 318  LispTestbed.MRMS.eth[0].mac  rxPkFromHL:vector(packetBytes)  ETV
attr interpolationmode  none
attr source  rxPkFromHL
attr title  "packet bytes from higher layer, vector(packetBytes)"
vector 313  LispTestbed.MRMS.eth[0].mac  txPk:vector(packetBytes)  ETV
attr interpolationmode  none
attr source  txPk
attr title  "packets transmitted, vector(packetBytes)"
vector 341  LispTestbed.Core.eth[0].mac  rxPkOk:vector(packetBytes)  ETV
attr interpolationmode  none
attr source  rxPkOk
attr title  "packets received OK, vector(packetBytes)"
vector 342  LispTestbed.Core.eth[0].mac  passedUpPk:vector(packetBytes)  ETV
attr interpolationmode  none
attr source  packetSentToUpper
attr title  "packets passed to higher layer, vector(packetBytes)"
vector 350  LispTestbed.Core.eth[0].encap  decapPk:vector(packetBytes)  ETV
attr interpolationmode  none
attr source  decapPk
attr title  "packets decapsulated, vector(packetBytes)"
vector 260  LispTestbed.xTR2.networkLayer6.neighbourDiscovery  startDAD:vector  ETV
attr title  "DAD started, vector"
vector 282  LispTestbed.xTR2.eth[1].encap  encapPk:vector(packetBytes)  ETV
attr interpolationmode  none
attr source  encapPk
attr title  "packets encapsulated, vector(packetBytes)"
vector 294  LispTestbed.xTR2.eth[2].encap  encapPk:vector(packetBytes)  ETV
attr interpolationmode  none
attr source  encapPk
attr title  "packets encapsulated, vector(packetBytes)"
vector 278  LispTestbed.xTR2.eth[1].mac  rxPkFromHL:vector(packetBytes)  ETV
attr interpolationmode  none
attr source  rxPkFromHL
attr title  "packet bytes from higher layer, vector(packetBytes)"
vector 290  LispTestbed.xTR2.eth[2].mac  rxPkFromHL:vector(packetBytes)  ETV
attr interpolationmode  none
attr source  rxPkFromHL
attr title  "packet bytes from higher layer, vector(packetBytes)"
vector 273  LispTestbed.xTR2.eth[1].mac  txPk:vector(packetBytes)  ETV
attr interpolationmode  none
attr source  txPk
attr title  "packets transmitted, vector(packetBytes)"
vector 285  LispTestbed.xTR2.eth[2].mac  txPk:vector(packetBytes)  ETV
attr interpolationmode  none
attr source  txPk
attr title  "packets transmitted, vector(packetBytes)"
vector 234  LispTestbed.xTR1.eth[2].mac  rxPkOk:vector(packetBytes)  ETV
attr interpolationmode  none
attr source  rxPkOk
attr title  "packets received OK, vector(packetBytes)"
vector 235  LispTestbed.xTR1.eth[2].mac  passedUpPk:vector(packetBytes)  ETV
attr interpolationmode  none
attr source  packetSentToUpper
attr title  "packets passed to higher layer, vector(packetBytes)"
vector 33  LispTestbed.SW.eth[1].mac  rxPkOk:vector(packetBytes)  ETV
attr interpolationmode  none
attr source  rxPkOk
attr title  "packets received OK, vector(packetBytes)"
vector 34  LispTestbed.SW.eth[1].mac  passedUpPk:vector(packetBytes)  ETV
attr interpolationmode  none
attr source  packetSentToUpper
attr title  "packets passed to higher layer, vector(packetBytes)"
vector 243  LispTestbed.xTR1.eth[2].encap  decapPk:vector(packetBytes)  ETV
attr interpolationmode  none
attr source  decapPk
attr title  "packets decapsulated, vector(packetBytes)"
vector 26  LispTestbed.SW.eth[0].mac  rxPkFromHL:vector(packetBytes)  ETV
attr interpolationmode  none
attr source  rxPkFromHL
attr title  "packet bytes from higher layer, vector(packetBytes)"
vector 21  LispTestbed.SW.eth[0].mac  txPk:vector(packetBytes)  ETV
attr interpolationmode  none
attr source  txPk
attr title  "packets transmitted, vector(packetBytes)"
vector 222  LispTestbed.xTR1.eth[1].mac  rxPkOk:vector(packetBytes)  ETV
attr interpolationmode  none
attr source  rxPkOk
attr title  "packets received OK, vector(packetBytes)"
vector 223  LispTestbed.xTR1.eth[1].mac  passedUpPk:vector(packetBytes)  ETV
attr interpolationmode  none
attr source  packetSentToUpper
attr title  "packets passed to higher layer, vector(packetBytes)"
vector 231  LispTestbed.xTR1.eth[1].encap  decapPk:vector(packetBytes)  ETV
attr interpolationmode  none
attr source  decapPk
attr title  "packets decapsulated, vector(packetBytes)"
vector 397  LispTestbed.xTR_Responder.networkLayer6.neighbourDiscovery  startDAD:vector  ETV
attr title  "DAD started, vector"
vector 407  LispTestbed.xTR_Responder.eth[0].encap  encapPk:vector(packetBytes)  ETV
attr interpolationmode  none
attr source  encapPk
attr title  "packets encapsulated, vector(packetBytes)"
vector 403  LispTestbed.xTR_Responder.eth[0].mac  rxPkFromHL:vector(packetBytes)  ETV
attr interpolationmode  none
attr source  rxPkFromHL
attr title  "packet bytes from higher layer, vector(packetBytes)"
vector 398  LispTestbed.xTR_Responder.eth[0].mac  txPk:vector(packetBytes)  ETV
attr interpolationmode  none
attr source  txPk
attr title  "packets transmitted, vector(packetBytes)"
vector 377  LispTestbed.Core.eth[3].mac  rxPkOk:vector(packetBytes)  ETV
attr interpolationmode  none
attr source  rxPkOk
attr title  "packets received OK, vector(packetBytes)"
vector 378  LispTestbed.Core.eth[3].mac  passedUpPk:vector(packetBytes)  ETV
attr interpolationmode  none
attr source  packetSentToUpper
attr title  "packets passed to higher layer, vector(packetBytes)"
vector 386  LispTestbed.Core.eth[3].encap  decapPk:vector(packetBytes)  ETV
attr interpolationmode  none
attr source  decapPk
attr title  "packets decapsulated, vector(packetBytes)"
vector 186  LispTestbed.Host2.networkLayer6.neighbourDiscovery  startDAD:vector  ETV
attr title  "DAD started, vector"
vector 196  LispTestbed.Host2.eth[0].encap  encapPk:vector(packetBytes)  ETV
attr interpolationmode  none
attr source  encapPk
attr title  "packets encapsulated, vector(packetBytes)"
vector 192  LispTestbed.Host2.eth[0].mac  rxPkFromHL:vector(packetBytes)  ETV
attr interpolationmode  none
attr source  rxPkFromHL
attr title  "packet bytes from higher layer, vector(packetBytes)"
vector 187  LispTestbed.Host2.eth[0].mac  txPk:vector(packetBytes)  ETV
attr interpolationmode  none
attr source  txPk
attr title  "packets transmitted, vector(packetBytes)"
vector 55  LispTestbed.SW.eth[3].mac  rxPkOk:vector(packetBytes)  ETV
attr interpolationmode  none
attr source  rxPkOk
attr title  "packets received OK, vector(packetBytes)"
vector 56  LispTestbed.SW.eth[3].mac  passedUpPk:vector(packetBytes)  ETV
attr interpolationmode  none
attr source  packetSentToUpper
attr title  "packets passed to higher layer, vector(packetBytes)"
vector 119  LispTestbed.Host1.networkLayer6.neighbourDiscovery  startDAD:vector  ETV
attr title  "DAD started, vector"
vector 129  LispTestbed.Host1.eth[0].encap  encapPk:vector(packetBytes)  ETV
attr interpolationmode  none
attr source  encapPk
attr title  "packets encapsulated, vector(packetBytes)"
vector 125  LispTestbed.Host1.eth[0].mac  rxPkFromHL:vector(packetBytes)  ETV
attr interpolationmode  none
attr source  rxPkFromHL
attr title  "packet bytes from higher layer, vector(packetBytes)"
vector 120  LispTestbed.Host1.eth[0].mac  txPk:vector(packetBytes)  ETV
attr interpolationmode  none
attr source  txPk
attr title  "packets transmitted, vector(packetBytes)"
vector 44  LispTestbed.SW.eth[2].mac  rxPkOk:vector(packetBytes)  ETV
attr interpolationmode  none
attr source  rxPkOk
attr title  "packets received OK, vector(packetBytes)"
vector 45  LispTestbed.SW.eth[2].mac  passedUpPk:vector(packetBytes)  ETV
attr interpolationmode  none
attr source  packetSentToUpper
attr title  "packets passed to higher layer, vector(packetBytes)"
vector 479  LispTestbed.xTR1.VRRP.VR_eth1_10  sentAdvert:vector  ETV
attr source  sentAdvert
attr title  "Advertisement sent, vector"
vector 478  LispTestbed.xTR1.VRRP.VR_eth1_10  sentARP:vector  ETV
attr source  sentARP
attr title  "ARP Gratuitous, vector"
vector 484  LispTestbed.xTR2.VRRP.VR_eth1_10  recvAdvert:vector  ETV
attr source  recvAdvert
attr title  "Received Advertisement, vector"
vector 413  LispTestbed.xTR_Responder.LISP.lispMsgLogger  msg-size:vector  ETV
attr source  sum(sigLispSizeSend)+sum(sigLispSizeRecv)
attr title  "msg, vector"
vector 414  LispTestbed.xTR_Responder.LISP.lispMsgLogger  msg-sizesend:vector  ETV
attr source  sum(sigLispSizeSend)
attr title  "msg size send, vector"
vector 388  LispTestbed.xTR_Responder.UDP  sentPk:vector(packetBytes)  ETV
attr interpolationmode  none
attr source  sentPk
attr title  "packets sent, vector(packetBytes)"
vector 393  LispTestbed.xTR_Responder.networkLayer.arp  sentReq:vector  ETV
attr title  "ARP request sent, vector"
vector 395  LispTestbed.xTR_Responder.networkLayer.arp  initiatedResolution:vector  ETV
attr title  "ARP initiated resolutions, vector"
vector 385  LispTestbed.Core.eth[3].encap  encapPk:vector(packetBytes)  ETV
attr interpolationmode  none
attr source  encapPk
attr title  "packets encapsulated, vector(packetBytes)"
vector 381  LispTestbed.Core.eth[3].mac  rxPkFromHL:vector(packetBytes)  ETV
attr interpolationmode  none
attr source  rxPkFromHL
attr title  "packet bytes from higher layer, vector(packetBytes)"
vector 376  LispTestbed.Core.eth[3].mac  txPk:vector(packetBytes)  ETV
attr interpolationmode  none
attr source  txPk
attr title  "packets transmitted, vector(packetBytes)"
vector 399  LispTestbed.xTR_Responder.eth[0].mac  rxPkOk:vector(packetBytes)  ETV
attr interpolationmode  none
attr source  rxPkOk
attr title  "packets received OK, vector(packetBytes)"
vector 400  LispTestbed.xTR_Responder.eth[0].mac  passedUpPk:vector(packetBytes)  ETV
attr interpolationmode  none
attr source  packetSentToUpper
attr title  "packets passed to higher layer, vector(packetBytes)"
vector 408  LispTestbed.xTR_Responder.eth[0].encap  decapPk:vector(packetBytes)  ETV
attr interpolationmode  none
attr source  decapPk
attr title  "packets decapsulated, vector(packetBytes)"
vector 336  LispTestbed.Core.networkLayer.arp  sentReq:vector  ETV
attr title  "ARP request sent, vector"
vector 338  LispTestbed.Core.networkLayer.arp  initiatedResolution:vector  ETV
attr title  "ARP initiated resolutions, vector"
vector 349  LispTestbed.Core.eth[0].encap  encapPk:vector(packetBytes)  ETV
attr interpolationmode  none
attr source  encapPk
attr title  "packets encapsulated, vector(packetBytes)"
vector 345  LispTestbed.Core.eth[0].mac  rxPkFromHL:vector(packetBytes)  ETV
attr interpolationmode  none
attr source  rxPkFromHL
attr title  "packet bytes from higher layer, vector(packetBytes)"
vector 340  LispTestbed.Core.eth[0].mac  txPk:vector(packetBytes)  ETV
attr interpolationmode  none
attr source  txPk
attr title  "packets transmitted, vector(packetBytes)"
vector 314  LispTestbed.MRMS.eth[0].mac  rxPkOk:vector(packetBytes)  ETV
attr interpolationmode  none
attr source  rxPkOk
attr title  "packets received OK, vector(packetBytes)"
vector 315  LispTestbed.MRMS.eth[0].mac  passedUpPk:vector(packetBytes)  ETV
attr interpolationmode  none
attr source  packetSentToUpper
attr title  "packets passed to higher layer, vector(packetBytes)"
vector 323  LispTestbed.MRMS.eth[0].encap  decapPk:vector(packetBytes)  ETV
attr interpolationmode  none
attr source  decapPk
attr title  "packets decapsulated, vector(packetBytes)"
vector 304  LispTestbed.MRMS.UDP  rcvdPk:vector(packetBytes)  ETV
attr interpolationmode  none
attr source  rcvdPk
attr title  "packets received, vector(packetBytes)"
vector 305  LispTestbed.MRMS.UDP  passedUpPk:vector(count)  ETV
attr interpolationmode  none
attr title  "packets passed up, vector(count)"
vector 328  LispTestbed.MRMS.LISP.lispMsgLogger  msg-size:vector  ETV
attr source  sum(sigLispSizeSend)+sum(sigLispSizeRecv)
attr title  "msg, vector"
vector 330  LispTestbed.MRMS.LISP.lispMsgLogger  msg-sizerecv:vector  ETV
attr source  sum(sigLispSizeRecv)
attr title  "msg size recieved, vector"
vector 98  LispTestbed.Host1.pingApp[6]  pingTxSeq:vector  ETV
attr interpolationmode  none
attr title  "ping tx seq, vector"
vector 115  LispTestbed.Host1.networkLayer.arp  sentReq:vector  ETV
attr title  "ARP request sent, vector"
vector 117  LispTestbed.Host1.networkLayer.arp  initiatedResolution:vector  ETV
attr title  "ARP initiated resolutions, vector"
vector 247  LispTestbed.xTR1.LISP.lispCore  packet-drop:vector  ETV
attr source  count(sigLispDrop)
attr title  "packet drop, vector"
vector 329  LispTestbed.MRMS.LISP.lispMsgLogger  msg-sizesend:vector  ETV
attr source  sum(sigLispSizeSend)
attr title  "msg size send, vector"
vector 303  LispTestbed.MRMS.UDP  sentPk:vector(packetBytes)  ETV
attr interpolationmode  none
attr source  sentPk
attr title  "packets sent, vector(packetBytes)"
vector 245  LispTestbed.xTR1.LISP.lispMapCache  cache-size:vector  ETV
attr source  sigLispSize
attr title  "map-cache size, vector"
vector 297  LispTestbed.xTR2.LISP.lispMapCache  cache-size:vector  ETV
attr source  sigLispSize
attr title  "map-cache size, vector"
vector 103  LispTestbed.Host1.pingApp[7]  pingTxSeq:vector  ETV
attr interpolationmode  none
attr title  "ping tx seq, vector"
vector 93  LispTestbed.Host1.pingApp[5]  pingTxSeq:vector  ETV
attr interpolationmode  none
attr title  "ping tx seq, vector"
vector 88  LispTestbed.Host1.pingApp[4]  pingTxSeq:vector  ETV
attr interpolationmode  none
attr title  "ping tx seq, vector"
vector 113  LispTestbed.Host1.pingApp[9]  pingTxSeq:vector  ETV
attr interpolationmode  none
attr title  "ping tx seq, vector"
vector 83  LispTestbed.Host1.pingApp[3]  pingTxSeq:vector  ETV
attr interpolationmode  none
attr title  "ping tx seq, vector"
vector 108  LispTestbed.Host1.pingApp[8]  pingTxSeq:vector  ETV
attr interpolationmode  none
attr title  "ping tx seq, vector"
vector 68  LispTestbed.Host1.pingApp[0]  pingTxSeq:vector  ETV
attr interpolationmode  none
attr title  "ping tx seq, vector"
vector 246  LispTestbed.xTR1.LISP.lispCore  packet-frwd:vector  ETV
attr source  count(sigLispForward)
attr title  "packet forwarded, vector"
vector 389  LispTestbed.xTR_Responder.UDP  rcvdPk:vector(packetBytes)  ETV
attr interpolationmode  none
attr source  rcvdPk
attr title  "packets received, vector(packetBytes)"
vector 390  LispTestbed.xTR_Responder.UDP  passedUpPk:vector(count)  ETV
attr interpolationmode  none
attr title  "packets passed up, vector(count)"
vector 411  LispTestbed.xTR_Responder.LISP.lispCore  packet-frwd:vector  ETV
attr source  count(sigLispForward)
attr title  "packet forwarded, vector"
vector 412  LispTestbed.xTR_Responder.LISP.lispCore  packet-drop:vector  ETV
attr source  count(sigLispDrop)
attr title  "packet drop, vector"
vector 415  LispTestbed.xTR_Responder.LISP.lispMsgLogger  msg-sizerecv:vector  ETV
attr source  sum(sigLispSizeRecv)
attr title  "msg size recieved, vector"
vector 410  LispTestbed.xTR_Responder.LISP.lispMapCache  cache-size:vector  ETV
attr source  sigLispSize
attr title  "map-cache size, vector"
vector 78  LispTestbed.Host1.pingApp[2]  pingTxSeq:vector  ETV
attr interpolationmode  none
attr title  "ping tx seq, vector"
vector 73  LispTestbed.Host1.pingApp[1]  pingTxSeq:vector  ETV
attr interpolationmode  none
attr title  "ping tx seq, vector"
vector 298  LispTestbed.xTR2.LISP.lispCore  packet-frwd:vector  ETV
attr source  count(sigLispForward)
attr title  "packet forwarded, vector"
vector 74  LispTestbed.Host1.pingApp[1]  pingRxSeq:vector  ETV
attr interpolationmode  none
attr title  "ping rx seq, vector"
vector 70  LispTestbed.Host1.pingApp[1]  rtt:vector  ETV
attr interpolationmode  none
attr title  "ping round-trip time, vector"