file 891583 1424099700                                          
version 2
run CacheSyncNaive-0-20150216-16:10:18-5968
attr configname CacheSyncNaive
attr datetime 20150216-16:10:18
attr experiment CacheSyncNaive
attr inifile omnetpp.ini
attr iterationvars ""
attr iterationvars2 $repetition=0
attr measurement ""
attr network LispTestbed
attr processid 5968
attr repetition 0
attr replication #0
attr resultdir results
attr runnumber 0
attr seedset 0

vector 991  LispTestbed.SW.ethg$o[0].channel  busy:vector  ETV
attr interpolationmode  sample-hold
attr source  channelBusy
vector 993  LispTestbed.SW.ethg$o[1].channel  busy:vector  ETV
attr interpolationmode  sample-hold
attr source  channelBusy
vector 994  LispTestbed.SW.ethg$o[2].channel  busy:vector  ETV
attr interpolationmode  sample-hold
attr source  channelBusy
vector 996  LispTestbed.SW.ethg$o[3].channel  busy:vector  ETV
attr interpolationmode  sample-hold
attr source  channelBusy
vector 995  LispTestbed.Host1.ethg$o[0].channel  busy:vector  ETV
attr interpolationmode  sample-hold
attr source  channelBusy
vector 997  LispTestbed.Host2.ethg$o[0].channel  busy:vector  ETV
attr interpolationmode  sample-hold
attr source  channelBusy
vector 984  LispTestbed.xTR1.ethg$o[0].channel  busy:vector  ETV
attr interpolationmode  sample-hold
attr source  channelBusy
vector 990  LispTestbed.xTR1.ethg$o[1].channel  busy:vector  ETV
attr interpolationmode  sample-hold
attr source  channelBusy
vector 998  LispTestbed.xTR1.ethg$o[2].channel  busy:vector  ETV
attr interpolationmode  sample-hold
attr source  channelBusy
vector 986  LispTestbed.xTR2.ethg$o[0].channel  busy:vector  ETV
attr interpolationmode  sample-hold
attr source  channelBusy
vector 992  LispTestbed.xTR2.ethg$o[1].channel  busy:vector  ETV
attr interpolationmode  sample-hold
attr source  channelBusy
vector 999  LispTestbed.xTR2.ethg$o[2].channel  busy:vector  ETV
attr interpolationmode  sample-hold
attr source  channelBusy
vector 983  LispTestbed.MRMS.ethg$o[0].channel  busy:vector  ETV
attr interpolationmode  sample-hold
attr source  channelBusy
vector 982  LispTestbed.Core.ethg$o[0].channel  busy:vector  ETV
attr interpolationmode  sample-hold
attr source  channelBusy
vector 985  LispTestbed.Core.ethg$o[1].channel  busy:vector  ETV
attr interpolationmode  sample-hold
attr source  channelBusy
vector 987  LispTestbed.Core.ethg$o[2].channel  busy:vector  ETV
attr interpolationmode  sample-hold
attr source  channelBusy
vector 988  LispTestbed.Core.ethg$o[3].channel  busy:vector  ETV
attr interpolationmode  sample-hold
attr source  channelBusy
vector 989  LispTestbed.xTR_Responder.ethg$o[0].channel  busy:vector  ETV
attr interpolationmode  sample-hold
attr source  channelBusy
vector 1230  LispTestbed.xTR1.LISP.lispMsgLogger  msg-size:vector  ETV
attr source  sum(sigLispSizeSend)+sum(sigLispSizeRecv)
attr title  "msg, vector"
vector 1231  LispTestbed.xTR1.LISP.lispMsgLogger  msg-sizesend:vector  ETV
attr source  sum(sigLispSizeSend)
attr title  "msg size send, vector"
vector 1282  LispTestbed.xTR2.LISP.lispMsgLogger  msg-size:vector  ETV
attr source  sum(sigLispSizeSend)+sum(sigLispSizeRecv)
attr title  "msg, vector"
vector 1283  LispTestbed.xTR2.LISP.lispMsgLogger  msg-sizesend:vector  ETV
attr source  sum(sigLispSizeSend)
attr title  "msg size send, vector"
vector 1181  LispTestbed.xTR1.UDP  sentPk:vector(packetBytes)  ETV
attr interpolationmode  none
attr source  sentPk
attr title  "packets sent, vector(packetBytes)"
vector 1233  LispTestbed.xTR2.UDP  sentPk:vector(packetBytes)  ETV
attr interpolationmode  none
attr source  sentPk
attr title  "packets sent, vector(packetBytes)"
vector 1186  LispTestbed.xTR1.networkLayer.arp  sentReq:vector  ETV
attr title  "ARP request sent, vector"
vector 1188  LispTestbed.xTR1.networkLayer.arp  initiatedResolution:vector  ETV
attr title  "ARP initiated resolutions, vector"
vector 1238  LispTestbed.xTR2.networkLayer.arp  sentReq:vector  ETV
attr title  "ARP request sent, vector"
vector 1240  LispTestbed.xTR2.networkLayer.arp  initiatedResolution:vector  ETV
attr title  "ARP initiated resolutions, vector"
vector 1200  LispTestbed.xTR1.eth[0].encap  encapPk:vector(packetBytes)  ETV
attr interpolationmode  none
attr source  encapPk
attr title  "packets encapsulated, vector(packetBytes)"
vector 1252  LispTestbed.xTR2.eth[0].encap  encapPk:vector(packetBytes)  ETV
attr interpolationmode  none
attr source  encapPk
attr title  "packets encapsulated, vector(packetBytes)"
vector 1196  LispTestbed.xTR1.eth[0].mac  rxPkFromHL:vector(packetBytes)  ETV
attr interpolationmode  none
attr source  rxPkFromHL
attr title  "packet bytes from higher layer, vector(packetBytes)"
vector 1248  LispTestbed.xTR2.eth[0].mac  rxPkFromHL:vector(packetBytes)  ETV
attr interpolationmode  none
attr source  rxPkFromHL
attr title  "packet bytes from higher layer, vector(packetBytes)"
vector 1191  LispTestbed.xTR1.eth[0].mac  txPk:vector(packetBytes)  ETV
attr interpolationmode  none
attr source  txPk
attr title  "packets transmitted, vector(packetBytes)"
vector 1243  LispTestbed.xTR2.eth[0].mac  txPk:vector(packetBytes)  ETV
attr interpolationmode  none
attr source  txPk
attr title  "packets transmitted, vector(packetBytes)"
vector 1335  LispTestbed.Core.eth[1].mac  rxPkOk:vector(packetBytes)  ETV
attr interpolationmode  none
attr source  rxPkOk
attr title  "packets received OK, vector(packetBytes)"
vector 1336  LispTestbed.Core.eth[1].mac  passedUpPk:vector(packetBytes)  ETV
attr interpolationmode  none
attr source  packetSentToUpper
attr title  "packets passed to higher layer, vector(packetBytes)"
vector 1347  LispTestbed.Core.eth[2].mac  rxPkOk:vector(packetBytes)  ETV
attr interpolationmode  none
attr source  rxPkOk
attr title  "packets received OK, vector(packetBytes)"
vector 1348  LispTestbed.Core.eth[2].mac  passedUpPk:vector(packetBytes)  ETV
attr interpolationmode  none
attr source  packetSentToUpper
attr title  "packets passed to higher layer, vector(packetBytes)"
vector 1344  LispTestbed.Core.eth[1].encap  decapPk:vector(packetBytes)  ETV
attr interpolationmode  none
attr source  decapPk
attr title  "packets decapsulated, vector(packetBytes)"
vector 1356  LispTestbed.Core.eth[2].encap  decapPk:vector(packetBytes)  ETV
attr interpolationmode  none
attr source  decapPk
attr title  "packets decapsulated, vector(packetBytes)"
vector 1343  LispTestbed.Core.eth[1].encap  encapPk:vector(packetBytes)  ETV
attr interpolationmode  none
attr source  encapPk
attr title  "packets encapsulated, vector(packetBytes)"
vector 1355  LispTestbed.Core.eth[2].encap  encapPk:vector(packetBytes)  ETV
attr interpolationmode  none
attr source  encapPk
attr title  "packets encapsulated, vector(packetBytes)"
vector 1339  LispTestbed.Core.eth[1].mac  rxPkFromHL:vector(packetBytes)  ETV
attr interpolationmode  none
attr source  rxPkFromHL
attr title  "packet bytes from higher layer, vector(packetBytes)"
vector 1351  LispTestbed.Core.eth[2].mac  rxPkFromHL:vector(packetBytes)  ETV
attr interpolationmode  none
attr source  rxPkFromHL
attr title  "packet bytes from higher layer, vector(packetBytes)"
vector 1334  LispTestbed.Core.eth[1].mac  txPk:vector(packetBytes)  ETV
attr interpolationmode  none
attr source  txPk
attr title  "packets transmitted, vector(packetBytes)"
vector 1346  LispTestbed.Core.eth[2].mac  txPk:vector(packetBytes)  ETV
attr interpolationmode  none
attr source  txPk
attr title  "packets transmitted, vector(packetBytes)"
vector 1192  LispTestbed.xTR1.eth[0].mac  rxPkOk:vector(packetBytes)  ETV
attr interpolationmode  none
attr source  rxPkOk
attr title  "packets received OK, vector(packetBytes)"
vector 1193  LispTestbed.xTR1.eth[0].mac  passedUpPk:vector(packetBytes)  ETV
attr interpolationmode  none
attr source  packetSentToUpper
attr title  "packets passed to higher layer, vector(packetBytes)"
vector 1244  LispTestbed.xTR2.eth[0].mac  rxPkOk:vector(packetBytes)  ETV
attr interpolationmode  none
attr source  rxPkOk
attr title  "packets received OK, vector(packetBytes)"
vector 1245  LispTestbed.xTR2.eth[0].mac  passedUpPk:vector(packetBytes)  ETV
attr interpolationmode  none
attr source  packetSentToUpper
attr title  "packets passed to higher layer, vector(packetBytes)"
vector 1201  LispTestbed.xTR1.eth[0].encap  decapPk:vector(packetBytes)  ETV
attr interpolationmode  none
attr source  decapPk
attr title  "packets decapsulated, vector(packetBytes)"
vector 1253  LispTestbed.xTR2.eth[0].encap  decapPk:vector(packetBytes)  ETV
attr interpolationmode  none
attr source  decapPk
attr title  "packets decapsulated, vector(packetBytes)"
vector 1234  LispTestbed.xTR2.UDP  rcvdPk:vector(packetBytes)  ETV
attr interpolationmode  none
attr source  rcvdPk
attr title  "packets received, vector(packetBytes)"
vector 1235  LispTestbed.xTR2.UDP  passedUpPk:vector(count)  ETV
attr interpolationmode  none
attr title  "packets passed up, vector(count)"
vector 1182  LispTestbed.xTR1.UDP  rcvdPk:vector(packetBytes)  ETV
attr interpolationmode  none
attr source  rcvdPk
attr title  "packets received, vector(packetBytes)"
vector 1183  LispTestbed.xTR1.UDP  passedUpPk:vector(count)  ETV
attr interpolationmode  none
attr title  "packets passed up, vector(count)"
vector 1284  LispTestbed.xTR2.LISP.lispMsgLogger  msg-sizerecv:vector  ETV
attr source  sum(sigLispSizeRecv)
attr title  "msg size recieved, vector"
vector 1232  LispTestbed.xTR1.LISP.lispMsgLogger  msg-sizerecv:vector  ETV
attr source  sum(sigLispSizeRecv)
attr title  "msg size recieved, vector"
vector 1190  LispTestbed.xTR1.networkLayer6.neighbourDiscovery  startDAD:vector  ETV
attr title  "DAD started, vector"
vector 1212  LispTestbed.xTR1.eth[1].encap  encapPk:vector(packetBytes)  ETV
attr interpolationmode  none
attr source  encapPk
attr title  "packets encapsulated, vector(packetBytes)"
vector 1224  LispTestbed.xTR1.eth[2].encap  encapPk:vector(packetBytes)  ETV
attr interpolationmode  none
attr source  encapPk
attr title  "packets encapsulated, vector(packetBytes)"
vector 1208  LispTestbed.xTR1.eth[1].mac  rxPkFromHL:vector(packetBytes)  ETV
attr interpolationmode  none
attr source  rxPkFromHL
attr title  "packet bytes from higher layer, vector(packetBytes)"
vector 1220  LispTestbed.xTR1.eth[2].mac  rxPkFromHL:vector(packetBytes)  ETV
attr interpolationmode  none
attr source  rxPkFromHL
attr title  "packet bytes from higher layer, vector(packetBytes)"
vector 1203  LispTestbed.xTR1.eth[1].mac  txPk:vector(packetBytes)  ETV
attr interpolationmode  none
attr source  txPk
attr title  "packets transmitted, vector(packetBytes)"
vector 1215  LispTestbed.xTR1.eth[2].mac  txPk:vector(packetBytes)  ETV
attr interpolationmode  none
attr source  txPk
attr title  "packets transmitted, vector(packetBytes)"
vector 1268  LispTestbed.xTR2.eth[2].mac  rxPkOk:vector(packetBytes)  ETV
attr interpolationmode  none
attr source  rxPkOk
attr title  "packets received OK, vector(packetBytes)"
vector 1269  LispTestbed.xTR2.eth[2].mac  passedUpPk:vector(packetBytes)  ETV
attr interpolationmode  none
attr source  packetSentToUpper
attr title  "packets passed to higher layer, vector(packetBytes)"
vector 1004  LispTestbed.SW.eth[0].mac  rxPkOk:vector(packetBytes)  ETV
attr interpolationmode  none
attr source  rxPkOk
attr title  "packets received OK, vector(packetBytes)"
vector 1005  LispTestbed.SW.eth[0].mac  passedUpPk:vector(packetBytes)  ETV
attr interpolationmode  none
attr source  packetSentToUpper
attr title  "packets passed to higher layer, vector(packetBytes)"
vector 1277  LispTestbed.xTR2.eth[2].encap  decapPk:vector(packetBytes)  ETV
attr interpolationmode  none
attr source  decapPk
attr title  "packets decapsulated, vector(packetBytes)"
vector 1458  LispTestbed.SW.relayUnit  "buffer level"  ETV
vector 1019  LispTestbed.SW.eth[1].mac  rxPkFromHL:vector(packetBytes)  ETV
attr interpolationmode  none
attr source  rxPkFromHL
attr title  "packet bytes from higher layer, vector(packetBytes)"
vector 1030  LispTestbed.SW.eth[2].mac  rxPkFromHL:vector(packetBytes)  ETV
attr interpolationmode  none
attr source  rxPkFromHL
attr title  "packet bytes from higher layer, vector(packetBytes)"
vector 1041  LispTestbed.SW.eth[3].mac  rxPkFromHL:vector(packetBytes)  ETV
attr interpolationmode  none
attr source  rxPkFromHL
attr title  "packet bytes from higher layer, vector(packetBytes)"
vector 1014  LispTestbed.SW.eth[1].mac  txPk:vector(packetBytes)  ETV
attr interpolationmode  none
attr source  txPk
attr title  "packets transmitted, vector(packetBytes)"
vector 1025  LispTestbed.SW.eth[2].mac  txPk:vector(packetBytes)  ETV
attr interpolationmode  none
attr source  txPk
attr title  "packets transmitted, vector(packetBytes)"
vector 1036  LispTestbed.SW.eth[3].mac  txPk:vector(packetBytes)  ETV
attr interpolationmode  none
attr source  txPk
attr title  "packets transmitted, vector(packetBytes)"
vector 1256  LispTestbed.xTR2.eth[1].mac  rxPkOk:vector(packetBytes)  ETV
attr interpolationmode  none
attr source  rxPkOk
attr title  "packets received OK, vector(packetBytes)"
vector 1257  LispTestbed.xTR2.eth[1].mac  passedUpPk:vector(packetBytes)  ETV
attr interpolationmode  none
attr source  packetSentToUpper
attr title  "packets passed to higher layer, vector(packetBytes)"
vector 1103  LispTestbed.Host1.eth[0].mac  rxPkOk:vector(packetBytes)  ETV
attr interpolationmode  none
attr source  rxPkOk
attr title  "packets received OK, vector(packetBytes)"
vector 1104  LispTestbed.Host1.eth[0].mac  passedUpPk:vector(packetBytes)  ETV
attr interpolationmode  none
attr source  packetSentToUpper
attr title  "packets passed to higher layer, vector(packetBytes)"
vector 1170  LispTestbed.Host2.eth[0].mac  rxPkOk:vector(packetBytes)  ETV
attr interpolationmode  none
attr source  rxPkOk
attr title  "packets received OK, vector(packetBytes)"
vector 1171  LispTestbed.Host2.eth[0].mac  passedUpPk:vector(packetBytes)  ETV
attr interpolationmode  none
attr source  packetSentToUpper
attr title  "packets passed to higher layer, vector(packetBytes)"
vector 1265  LispTestbed.xTR2.eth[1].encap  decapPk:vector(packetBytes)  ETV
attr interpolationmode  none
attr source  decapPk
attr title  "packets decapsulated, vector(packetBytes)"
vector 1112  LispTestbed.Host1.eth[0].encap  decapPk:vector(packetBytes)  ETV
attr interpolationmode  none
attr source  decapPk
attr title  "packets decapsulated, vector(packetBytes)"
vector 1179  LispTestbed.Host2.eth[0].encap  decapPk:vector(packetBytes)  ETV
attr interpolationmode  none
attr source  decapPk
attr title  "packets decapsulated, vector(packetBytes)"
vector 1294  LispTestbed.MRMS.networkLayer6.neighbourDiscovery  startDAD:vector  ETV
attr title  "DAD started, vector"
vector 1304  LispTestbed.MRMS.eth[0].encap  encapPk:vector(packetBytes)  ETV
attr interpolationmode  none
attr source  encapPk
attr title  "packets encapsulated, vector(packetBytes)"
vector 1300  LispTestbed.MRMS.eth[0].mac  rxPkFromHL:vector(packetBytes)  ETV
attr interpolationmode  none
attr source  rxPkFromHL
attr title  "packet bytes from higher layer, vector(packetBytes)"
vector 1295  LispTestbed.MRMS.eth[0].mac  txPk:vector(packetBytes)  ETV
attr interpolationmode  none
attr source  txPk
attr title  "packets transmitted, vector(packetBytes)"
vector 1323  LispTestbed.Core.eth[0].mac  rxPkOk:vector(packetBytes)  ETV
attr interpolationmode  none
attr source  rxPkOk
attr title  "packets received OK, vector(packetBytes)"
vector 1324  LispTestbed.Core.eth[0].mac  passedUpPk:vector(packetBytes)  ETV
attr interpolationmode  none
attr source  packetSentToUpper
attr title  "packets passed to higher layer, vector(packetBytes)"
vector 1332  LispTestbed.Core.eth[0].encap  decapPk:vector(packetBytes)  ETV
attr interpolationmode  none
attr source  decapPk
attr title  "packets decapsulated, vector(packetBytes)"
vector 1242  LispTestbed.xTR2.networkLayer6.neighbourDiscovery  startDAD:vector  ETV
attr title  "DAD started, vector"
vector 1264  LispTestbed.xTR2.eth[1].encap  encapPk:vector(packetBytes)  ETV
attr interpolationmode  none
attr source  encapPk
attr title  "packets encapsulated, vector(packetBytes)"
vector 1276  LispTestbed.xTR2.eth[2].encap  encapPk:vector(packetBytes)  ETV
attr interpolationmode  none
attr source  encapPk
attr title  "packets encapsulated, vector(packetBytes)"
vector 1260  LispTestbed.xTR2.eth[1].mac  rxPkFromHL:vector(packetBytes)  ETV
attr interpolationmode  none
attr source  rxPkFromHL
attr title  "packet bytes from higher layer, vector(packetBytes)"
vector 1272  LispTestbed.xTR2.eth[2].mac  rxPkFromHL:vector(packetBytes)  ETV
attr interpolationmode  none
attr source  rxPkFromHL
attr title  "packet bytes from higher layer, vector(packetBytes)"
vector 1255  LispTestbed.xTR2.eth[1].mac  txPk:vector(packetBytes)  ETV
attr interpolationmode  none
attr source  txPk
attr title  "packets transmitted, vector(packetBytes)"
vector 1267  LispTestbed.xTR2.eth[2].mac  txPk:vector(packetBytes)  ETV
attr interpolationmode  none
attr source  txPk
attr title  "packets transmitted, vector(packetBytes)"
vector 1216  LispTestbed.xTR1.eth[2].mac  rxPkOk:vector(packetBytes)  ETV
attr interpolationmode  none
attr source  rxPkOk
attr title  "packets received OK, vector(packetBytes)"
vector 1217  LispTestbed.xTR1.eth[2].mac  passedUpPk:vector(packetBytes)  ETV
attr interpolationmode  none
attr source  packetSentToUpper
attr title  "packets passed to higher layer, vector(packetBytes)"
vector 1015  LispTestbed.SW.eth[1].mac  rxPkOk:vector(packetBytes)  ETV
attr interpolationmode  none
attr source  rxPkOk
attr title  "packets received OK, vector(packetBytes)"
vector 1016  LispTestbed.SW.eth[1].mac  passedUpPk:vector(packetBytes)  ETV
attr interpolationmode  none
attr source  packetSentToUpper
attr title  "packets passed to higher layer, vector(packetBytes)"
vector 1225  LispTestbed.xTR1.eth[2].encap  decapPk:vector(packetBytes)  ETV
attr interpolationmode  none
attr source  decapPk
attr title  "packets decapsulated, vector(packetBytes)"
vector 1008  LispTestbed.SW.eth[0].mac  rxPkFromHL:vector(packetBytes)  ETV
attr interpolationmode  none
attr source  rxPkFromHL
attr title  "packet bytes from higher layer, vector(packetBytes)"
vector 1003  LispTestbed.SW.eth[0].mac  txPk:vector(packetBytes)  ETV
attr interpolationmode  none
attr source  txPk
attr title  "packets transmitted, vector(packetBytes)"
vector 1204  LispTestbed.xTR1.eth[1].mac  rxPkOk:vector(packetBytes)  ETV
attr interpolationmode  none
attr source  rxPkOk
attr title  "packets received OK, vector(packetBytes)"
vector 1205  LispTestbed.xTR1.eth[1].mac  passedUpPk:vector(packetBytes)  ETV
attr interpolationmode  none
attr source  packetSentToUpper
attr title  "packets passed to higher layer, vector(packetBytes)"
vector 1213  LispTestbed.xTR1.eth[1].encap  decapPk:vector(packetBytes)  ETV
attr interpolationmode  none
attr source  decapPk
attr title  "packets decapsulated, vector(packetBytes)"
vector 1379  LispTestbed.xTR_Responder.networkLayer6.neighbourDiscovery  startDAD:vector  ETV
attr title  "DAD started, vector"
vector 1389  LispTestbed.xTR_Responder.eth[0].encap  encapPk:vector(packetBytes)  ETV
attr interpolationmode  none
attr source  encapPk
attr title  "packets encapsulated, vector(packetBytes)"
vector 1385  LispTestbed.xTR_Responder.eth[0].mac  rxPkFromHL:vector(packetBytes)  ETV
attr interpolationmode  none
attr source  rxPkFromHL
attr title  "packet bytes from higher layer, vector(packetBytes)"
vector 1380  LispTestbed.xTR_Responder.eth[0].mac  txPk:vector(packetBytes)  ETV
attr interpolationmode  none
attr source  txPk
attr title  "packets transmitted, vector(packetBytes)"
vector 1359  LispTestbed.Core.eth[3].mac  rxPkOk:vector(packetBytes)  ETV
attr interpolationmode  none
attr source  rxPkOk
attr title  "packets received OK, vector(packetBytes)"
vector 1360  LispTestbed.Core.eth[3].mac  passedUpPk:vector(packetBytes)  ETV
attr interpolationmode  none
attr source  packetSentToUpper
attr title  "packets passed to higher layer, vector(packetBytes)"
vector 1368  LispTestbed.Core.eth[3].encap  decapPk:vector(packetBytes)  ETV
attr interpolationmode  none
attr source  decapPk
attr title  "packets decapsulated, vector(packetBytes)"
vector 1168  LispTestbed.Host2.networkLayer6.neighbourDiscovery  startDAD:vector  ETV
attr title  "DAD started, vector"
vector 1178  LispTestbed.Host2.eth[0].encap  encapPk:vector(packetBytes)  ETV
attr interpolationmode  none
attr source  encapPk
attr title  "packets encapsulated, vector(packetBytes)"
vector 1174  LispTestbed.Host2.eth[0].mac  rxPkFromHL:vector(packetBytes)  ETV
attr interpolationmode  none
attr source  rxPkFromHL
attr title  "packet bytes from higher layer, vector(packetBytes)"
vector 1169  LispTestbed.Host2.eth[0].mac  txPk:vector(packetBytes)  ETV
attr interpolationmode  none
attr source  txPk
attr title  "packets transmitted, vector(packetBytes)"
vector 1037  LispTestbed.SW.eth[3].mac  rxPkOk:vector(packetBytes)  ETV
attr interpolationmode  none
attr source  rxPkOk
attr title  "packets received OK, vector(packetBytes)"
vector 1038  LispTestbed.SW.eth[3].mac  passedUpPk:vector(packetBytes)  ETV
attr interpolationmode  none
attr source  packetSentToUpper
attr title  "packets passed to higher layer, vector(packetBytes)"
vector 1101  LispTestbed.Host1.networkLayer6.neighbourDiscovery  startDAD:vector  ETV
attr title  "DAD started, vector"
vector 1111  LispTestbed.Host1.eth[0].encap  encapPk:vector(packetBytes)  ETV
attr interpolationmode  none
attr source  encapPk
attr title  "packets encapsulated, vector(packetBytes)"
vector 1107  LispTestbed.Host1.eth[0].mac  rxPkFromHL:vector(packetBytes)  ETV
attr interpolationmode  none
attr source  rxPkFromHL
attr title  "packet bytes from higher layer, vector(packetBytes)"
vector 1102  LispTestbed.Host1.eth[0].mac  txPk:vector(packetBytes)  ETV
attr interpolationmode  none
attr source  txPk
attr title  "packets transmitted, vector(packetBytes)"
vector 1026  LispTestbed.SW.eth[2].mac  rxPkOk:vector(packetBytes)  ETV
attr interpolationmode  none
attr source  rxPkOk
attr title  "packets received OK, vector(packetBytes)"
vector 1027  LispTestbed.SW.eth[2].mac  passedUpPk:vector(packetBytes)  ETV
attr interpolationmode  none
attr source  packetSentToUpper
attr title  "packets passed to higher layer, vector(packetBytes)"
vector 1461  LispTestbed.xTR1.VRRP.VR_eth1_10  sentAdvert:vector  ETV
attr source  sentAdvert
attr title  "Advertisement sent, vector"
vector 1460  LispTestbed.xTR1.VRRP.VR_eth1_10  sentARP:vector  ETV
attr source  sentARP
attr title  "ARP Gratuitous, vector"
vector 1466  LispTestbed.xTR2.VRRP.VR_eth1_10  recvAdvert:vector  ETV
attr source  recvAdvert
attr title  "Received Advertisement, vector"
vector 1395  LispTestbed.xTR_Responder.LISP.lispMsgLogger  msg-size:vector  ETV
attr source  sum(sigLispSizeSend)+sum(sigLispSizeRecv)
attr title  "msg, vector"
vector 1396  LispTestbed.xTR_Responder.LISP.lispMsgLogger  msg-sizesend:vector  ETV
attr source  sum(sigLispSizeSend)
attr title  "msg size send, vector"
vector 1370  LispTestbed.xTR_Responder.UDP  sentPk:vector(packetBytes)  ETV
attr interpolationmode  none
attr source  sentPk
attr title  "packets sent, vector(packetBytes)"
vector 1375  LispTestbed.xTR_Responder.networkLayer.arp  sentReq:vector  ETV
attr title  "ARP request sent, vector"
vector 1377  LispTestbed.xTR_Responder.networkLayer.arp  initiatedResolution:vector  ETV
attr title  "ARP initiated resolutions, vector"
vector 1367  LispTestbed.Core.eth[3].encap  encapPk:vector(packetBytes)  ETV
attr interpolationmode  none
attr source  encapPk
attr title  "packets encapsulated, vector(packetBytes)"
vector 1363  LispTestbed.Core.eth[3].mac  rxPkFromHL:vector(packetBytes)  ETV
attr interpolationmode  none
attr source  rxPkFromHL
attr title  "packet bytes from higher layer, vector(packetBytes)"
vector 1358  LispTestbed.Core.eth[3].mac  txPk:vector(packetBytes)  ETV
attr interpolationmode  none
attr source  txPk
attr title  "packets transmitted, vector(packetBytes)"
vector 1381  LispTestbed.xTR_Responder.eth[0].mac  rxPkOk:vector(packetBytes)  ETV
attr interpolationmode  none
attr source  rxPkOk
attr title  "packets received OK, vector(packetBytes)"
vector 1382  LispTestbed.xTR_Responder.eth[0].mac  passedUpPk:vector(packetBytes)  ETV
attr interpolationmode  none
attr source  packetSentToUpper
attr title  "packets passed to higher layer, vector(packetBytes)"
vector 1390  LispTestbed.xTR_Responder.eth[0].encap  decapPk:vector(packetBytes)  ETV
attr interpolationmode  none
attr source  decapPk
attr title  "packets decapsulated, vector(packetBytes)"
vector 1318  LispTestbed.Core.networkLayer.arp  sentReq:vector  ETV
attr title  "ARP request sent, vector"
vector 1320  LispTestbed.Core.networkLayer.arp  initiatedResolution:vector  ETV
attr title  "ARP initiated resolutions, vector"
vector 1331  LispTestbed.Core.eth[0].encap  encapPk:vector(packetBytes)  ETV
attr interpolationmode  none
attr source  encapPk
attr title  "packets encapsulated, vector(packetBytes)"
vector 1327  LispTestbed.Core.eth[0].mac  rxPkFromHL:vector(packetBytes)  ETV
attr interpolationmode  none
attr source  rxPkFromHL
attr title  "packet bytes from higher layer, vector(packetBytes)"
vector 1322  LispTestbed.Core.eth[0].mac  txPk:vector(packetBytes)  ETV
attr interpolationmode  none
attr source  txPk
attr title  "packets transmitted, vector(packetBytes)"
vector 1296  LispTestbed.MRMS.eth[0].mac  rxPkOk:vector(packetBytes)  ETV
attr interpolationmode  none
attr source  rxPkOk
attr title  "packets received OK, vector(packetBytes)"
vector 1297  LispTestbed.MRMS.eth[0].mac  passedUpPk:vector(packetBytes)  ETV
attr interpolationmode  none
attr source  packetSentToUpper
attr title  "packets passed to higher layer, vector(packetBytes)"
vector 1305  LispTestbed.MRMS.eth[0].encap  decapPk:vector(packetBytes)  ETV
attr interpolationmode  none
attr source  decapPk
attr title  "packets decapsulated, vector(packetBytes)"
vector 1286  LispTestbed.MRMS.UDP  rcvdPk:vector(packetBytes)  ETV
attr interpolationmode  none
attr source  rcvdPk
attr title  "packets received, vector(packetBytes)"
vector 1287  LispTestbed.MRMS.UDP  passedUpPk:vector(count)  ETV
attr interpolationmode  none
attr title  "packets passed up, vector(count)"
vector 1310  LispTestbed.MRMS.LISP.lispMsgLogger  msg-size:vector  ETV
attr source  sum(sigLispSizeSend)+sum(sigLispSizeRecv)
attr title  "msg, vector"
vector 1312  LispTestbed.MRMS.LISP.lispMsgLogger  msg-sizerecv:vector  ETV
attr source  sum(sigLispSizeRecv)
attr title  "msg size recieved, vector"
vector 1080  LispTestbed.Host1.pingApp[6]  pingTxSeq:vector  ETV
attr interpolationmode  none
attr title  "ping tx seq, vector"
vector 1097  LispTestbed.Host1.networkLayer.arp  sentReq:vector  ETV
attr title  "ARP request sent, vector"
vector 1099  LispTestbed.Host1.networkLayer.arp  initiatedResolution:vector  ETV
attr title  "ARP initiated resolutions, vector"
vector 1229  LispTestbed.xTR1.LISP.lispCore  packet-drop:vector  ETV
attr source  count(sigLispDrop)
attr title  "packet drop, vector"
vector 1311  LispTestbed.MRMS.LISP.lispMsgLogger  msg-sizesend:vector  ETV
attr source  sum(sigLispSizeSend)
attr title  "msg size send, vector"
vector 1285  LispTestbed.MRMS.UDP  sentPk:vector(packetBytes)  ETV
attr interpolationmode  none
attr source  sentPk
attr title  "packets sent, vector(packetBytes)"
vector 1227  LispTestbed.xTR1.LISP.lispMapCache  cache-size:vector  ETV
attr source  sigLispSize
attr title  "map-cache size, vector"
vector 1279  LispTestbed.xTR2.LISP.lispMapCache  cache-size:vector  ETV
attr source  sigLispSize
attr title  "map-cache size, vector"
vector 1085  LispTestbed.Host1.pingApp[7]  pingTxSeq:vector  ETV
attr interpolationmode  none
attr title  "ping tx seq, vector"
vector 1075  LispTestbed.Host1.pingApp[5]  pingTxSeq:vector  ETV
attr interpolationmode  none
attr title  "ping tx seq, vector"
vector 1070  LispTestbed.Host1.pingApp[4]  pingTxSeq:vector  ETV
attr interpolationmode  none
attr title  "ping tx seq, vector"
vector 1095  LispTestbed.Host1.pingApp[9]  pingTxSeq:vector  ETV
attr interpolationmode  none
attr title  "ping tx seq, vector"
vector 1065  LispTestbed.Host1.pingApp[3]  pingTxSeq:vector  ETV
attr interpolationmode  none
attr title  "ping tx seq, vector"
vector 1090  LispTestbed.Host1.pingApp[8]  pingTxSeq:vector  ETV
attr interpolationmode  none
attr title  "ping tx seq, vector"
vector 1050  LispTestbed.Host1.pingApp[0]  pingTxSeq:vector  ETV
attr interpolationmode  none
attr title  "ping tx seq, vector"
vector 1228  LispTestbed.xTR1.LISP.lispCore  packet-frwd:vector  ETV
attr source  count(sigLispForward)
attr title  "packet forwarded, vector"
vector 1371  LispTestbed.xTR_Responder.UDP  rcvdPk:vector(packetBytes)  ETV
attr interpolationmode  none
attr source  rcvdPk
attr title  "packets received, vector(packetBytes)"
vector 1372  LispTestbed.xTR_Responder.UDP  passedUpPk:vector(count)  ETV
attr interpolationmode  none
attr title  "packets passed up, vector(count)"
vector 1393  LispTestbed.xTR_Responder.LISP.lispCore  packet-frwd:vector  ETV
attr source  count(sigLispForward)
attr title  "packet forwarded, vector"
vector 1394  LispTestbed.xTR_Responder.LISP.lispCore  packet-drop:vector  ETV
attr source  count(sigLispDrop)
attr title  "packet drop, vector"
vector 1397  LispTestbed.xTR_Responder.LISP.lispMsgLogger  msg-sizerecv:vector  ETV
attr source  sum(sigLispSizeRecv)
attr title  "msg size recieved, vector"
vector 1392  LispTestbed.xTR_Responder.LISP.lispMapCache  cache-size:vector  ETV
attr source  sigLispSize
attr title  "map-cache size, vector"
vector 1060  LispTestbed.Host1.pingApp[2]  pingTxSeq:vector  ETV
attr interpolationmode  none
attr title  "ping tx seq, vector"
vector 1055  LispTestbed.Host1.pingApp[1]  pingTxSeq:vector  ETV
attr interpolationmode  none
attr title  "ping tx seq, vector"
vector 1280  LispTestbed.xTR2.LISP.lispCore  packet-frwd:vector  ETV
attr source  count(sigLispForward)
attr title  "packet forwarded, vector"