version 2
run One-0-20120611-12:01:27-7496
attr configname One
attr datetime 20120611-12:01:27
attr experiment One
attr inifile omnetpp.ini
attr iterationvars ""
attr iterationvars2 $repetition=0
attr measurement ""
attr network SimpleTest
attr processid 7496
attr repetition 0
attr replication #0
attr resultdir results
attr runnumber 0
attr seedset 0

vector 64  SimpleTest.Analyzer.trafgen  "Flow 1 actual birate"  ETV
vector 65  SimpleTest.Analyzer.trafgen  "Flow 1 actual packetrate"  ETV
vector 66  SimpleTest.Analyzer.trafgen  "Flow 2 actual birate"  ETV
vector 67  SimpleTest.Analyzer.trafgen  "Flow 2 actual packetrate"  ETV
vector 68  SimpleTest.Analyzer.trafgen  "Flow 3 actual birate"  ETV
vector 69  SimpleTest.Analyzer.trafgen  "Flow 3 actual packetrate"  ETV
vector 36  SimpleTest.Generator.eth[0].mac  framesSent  ETV
vector 38  SimpleTest.Generator.eth[0].mac  bytesSent  ETV
vector 5  SimpleTest.R1.eth[0].mac  framesReceivedOK  ETV
vector 7  SimpleTest.R1.eth[0].mac  bytesReceivedOK  ETV
vector 11  SimpleTest.R1.eth[0].mac  framesPassedToHL  ETV
vector 4  SimpleTest.R1.eth[0].mac  framesSent  ETV
vector 6  SimpleTest.R1.eth[0].mac  bytesSent  ETV
vector 37  SimpleTest.Generator.eth[0].mac  framesReceivedOK  ETV
vector 39  SimpleTest.Generator.eth[0].mac  bytesReceivedOK  ETV
vector 43  SimpleTest.Generator.eth[0].mac  framesPassedToHL  ETV
vector 34  SimpleTest.Generator.eth[0].queue  "queue length"  ETV
4	48	1.000013539998	1
5	37	1.000006819999	1
5	67	1.000035019997	2
5	77	1.000056299996	3
5	85	1.000064139995	4
5	109	1.010021379999	5
5	117	1.010042659998	6
5	147	1.020007939999	7
5	157	1.020029219998	8
5	165	1.020050499997	9
5	189	1.030021379999	10
5	197	1.030042659998	11
5	227	1.040007939999	12
5	237	1.040029219998	13
5	245	1.040050499997	14
5	269	1.050021379999	15
5	277	1.050042659998	16
6	48	1.000013539998	64
7	37	1.000006819999	64
7	67	1.000035019997	310
7	77	1.000056299996	556
7	85	1.000064139995	634
7	109	1.010021379999	880
7	117	1.010042659998	1126
7	147	1.020007939999	1204
7	157	1.020029219998	1450
7	165	1.020050499997	1696
7	189	1.030021379999	1942
7	197	1.030042659998	2188
7	227	1.040007939999	2266
7	237	1.040029219998	2512
7	245	1.040050499997	2758
7	269	1.050021379999	3004
7	277	1.050042659998	3250
11	37	1.000006819999	1
11	67	1.000035019997	2
11	77	1.000056299996	3
11	85	1.000064139995	4
11	109	1.010021379999	5
11	117	1.010042659998	6
11	147	1.020007939999	7
11	157	1.020029219998	8
11	165	1.020050499997	9
11	189	1.030021379999	10
11	197	1.030042659998	11
11	227	1.040007939999	12
11	237	1.040029219998	13
11	245	1.040050499997	14
11	269	1.050021379999	15
11	277	1.050042659998	16
34	58	1.000013639998	1
34	59	1.000013639998	2
34	64	1.000034919997	1
34	74	1.000056199996	0
34	101	1.01	1
34	106	1.010021279999	0
34	138	1.02	1
34	139	1.02	2
34	144	1.020007839999	1
34	154	1.020029119998	0
34	181	1.03	1
34	186	1.030021279999	0
34	218	1.04	1
34	219	1.04	2
34	224	1.040007839999	1
34	234	1.040029119998	0
34	261	1.05	1
34	266	1.050021279999	0
36	36	1.000006719999	1
36	64	1.000034919997	2
36	74	1.000056199996	3
36	84	1.000064039995	4
36	106	1.010021279999	5
36	116	1.010042559998	6
36	144	1.020007839999	7
36	154	1.020029119998	8
36	164	1.020050399997	9
36	186	1.030021279999	10
36	196	1.030042559998	11
36	224	1.040007839999	12
36	234	1.040029119998	13
36	244	1.040050399997	14
36	266	1.050021279999	15
36	276	1.050042559998	16
37	49	1.000013639998	1
38	36	1.000006719999	64
38	64	1.000034919997	310
38	74	1.000056199996	556
38	84	1.000064039995	634
38	106	1.010021279999	880
38	116	1.010042559998	1126
38	144	1.020007839999	1204
38	154	1.020029119998	1450
38	164	1.020050399997	1696
38	186	1.030021279999	1942
38	196	1.030042559998	2188
38	224	1.040007839999	2266
38	234	1.040029119998	2512
38	244	1.040050399997	2758
38	266	1.050021279999	3004
38	276	1.050042559998	3250
39	49	1.000013639998	64
43	49	1.000013639998	1
64	20	1	0
65	20	1	0
66	20	1	0
67	20	1	0
68	20	1	0
69	20	1	0
