version 2
run One-0-20120528-13:37:40-7656
attr configname One
attr datetime 20120528-13:37:40
attr experiment One
attr inifile omnetpp.ini
attr iterationvars ""
attr iterationvars2 $repetition=0
attr measurement ""
attr network SimpleTest
attr processid 7656
attr repetition 0
attr replication #0
attr resultdir results
attr runnumber 0
attr seedset 0

vector 64  SimpleTest.Analyzer.trafgen  "Flow 1 actual birate"  ETV
vector 65  SimpleTest.Analyzer.trafgen  "Flow 1 actual packetrate"  ETV
vector 66  SimpleTest.Analyzer.trafgen  "Flow 2 actual birate"  ETV
vector 67  SimpleTest.Analyzer.trafgen  "Flow 2 actual packetrate"  ETV
vector 68  SimpleTest.Analyzer.trafgen  "Flow 3 actual birate"  ETV
vector 69  SimpleTest.Analyzer.trafgen  "Flow 3 actual packetrate"  ETV
vector 36  SimpleTest.Generator.eth[0].mac  framesSent  ETV
vector 38  SimpleTest.Generator.eth[0].mac  bytesSent  ETV
vector 5  SimpleTest.R1.eth[0].mac  framesReceivedOK  ETV
vector 7  SimpleTest.R1.eth[0].mac  bytesReceivedOK  ETV
vector 11  SimpleTest.R1.eth[0].mac  framesPassedToHL  ETV
vector 4  SimpleTest.R1.eth[0].mac  framesSent  ETV
vector 6  SimpleTest.R1.eth[0].mac  bytesSent  ETV
vector 37  SimpleTest.Generator.eth[0].mac  framesReceivedOK  ETV
vector 39  SimpleTest.Generator.eth[0].mac  bytesReceivedOK  ETV
vector 43  SimpleTest.Generator.eth[0].mac  framesPassedToHL  ETV
vector 34  SimpleTest.Generator.eth[0].queue  "queue length"  ETV
4	48	1.000013539998	1
4	4120	2.010013539998	2
4	8184	3.020013539998	3
4	12256	4.030013539998	4
4	16320	5.040013539998	5
4	20392	6.050013539998	6
4	24456	7.060013539998	7
4	28528	8.070013539998	8
4	32592	9.080013539998	9
4	36664	10.090013539998	10
5	37	1.000006819999	1
5	67	1.000035019997	2
5	77	1.000056299996	3
5	85	1.000064139995	4
5	109	1.010021379999	5
5	117	1.010042659998	6
5	147	1.020007939999	7
5	157	1.020029219998	8
5	165	1.020050499997	9
5	189	1.030021379999	10
5	197	1.030042659998	11
5	227	1.040007939999	12
5	237	1.040029219998	13
5	245	1.040050499997	14
5	269	1.050021379999	15
5	277	1.050042659998	16
5	307	1.060007939999	17
5	317	1.060029219998	18
5	325	1.060050499997	19
5	349	1.070021379999	20
5	357	1.070042659998	21
5	387	1.080007939999	22
5	397	1.080029219998	23
5	405	1.080050499997	24
5	429	1.090021379999	25
5	437	1.090042659998	26
5	467	1.100007939999	27
5	477	1.100029219998	28
5	485	1.100050499997	29
5	509	1.110021379999	30
5	517	1.110042659998	31
5	547	1.120007939999	32
5	557	1.120029219998	33
5	565	1.120050499997	34
5	589	1.130021379999	35
5	597	1.130042659998	36
5	627	1.140007939999	37
5	637	1.140029219998	38
5	645	1.140050499997	39
5	669	1.150021379999	40
5	677	1.150042659998	41
5	707	1.160007939999	42
5	717	1.160029219998	43
5	725	1.160050499997	44
5	749	1.170021379999	45
5	757	1.170042659998	46
5	787	1.180007939999	47
5	797	1.180029219998	48
5	805	1.180050499997	49
5	829	1.190021379999	50
5	837	1.190042659998	51
5	867	1.200007939999	52
5	877	1.200029219998	53
5	885	1.200050499997	54
5	909	1.210021379999	55
5	917	1.210042659998	56
5	947	1.220007939999	57
5	957	1.220029219998	58
5	965	1.220050499997	59
5	989	1.230021379999	60
5	997	1.230042659998	61
5	1027	1.240007939999	62
5	1037	1.240029219998	63
5	1045	1.240050499997	64
5	1069	1.250021379999	65
5	1077	1.250042659998	66
5	1107	1.260007939999	67
5	1117	1.260029219998	68
5	1125	1.260050499997	69
5	1149	1.270021379999	70
5	1157	1.270042659998	71
5	1187	1.280007939999	72
5	1197	1.280029219998	73
5	1205	1.280050499997	74
5	1229	1.290021379999	75
5	1237	1.290042659998	76
5	1267	1.300007939999	77
5	1277	1.300029219998	78
5	1285	1.300050499997	79
5	1309	1.310021379999	80
5	1317	1.310042659998	81
5	1347	1.320007939999	82
5	1357	1.320029219998	83
5	1365	1.320050499997	84
5	1389	1.330021379999	85
5	1397	1.330042659998	86
5	1427	1.340007939999	87
5	1437	1.340029219998	88
5	1445	1.340050499997	89
5	1469	1.350021379999	90
5	1477	1.350042659998	91
5	1507	1.360007939999	92
5	1517	1.360029219998	93
5	1525	1.360050499997	94
5	1549	1.370021379999	95
5	1557	1.370042659998	96
5	1587	1.380007939999	97
5	1597	1.380029219998	98
5	1605	1.380050499997	99
5	1629	1.390021379999	100
5	1637	1.390042659998	101
5	1667	1.400007939999	102
5	1677	1.400029219998	103
5	1685	1.400050499997	104
5	1709	1.410021379999	105
5	1717	1.410042659998	106
5	1747	1.420007939999	107
5	1757	1.420029219998	108
5	1765	1.420050499997	109
5	1789	1.430021379999	110
5	1797	1.430042659998	111
5	1827	1.440007939999	112
5	1837	1.440029219998	113
5	1845	1.440050499997	114
5	1869	1.450021379999	115
5	1877	1.450042659998	116
5	1907	1.460007939999	117
5	1917	1.460029219998	118
5	1925	1.460050499997	119
5	1949	1.470021379999	120
5	1957	1.470042659998	121
5	1987	1.480007939999	122
5	1997	1.480029219998	123
5	2005	1.480050499997	124
5	2029	1.490021379999	125
5	2037	1.490042659998	126
5	2069	1.500007939999	127
5	2079	1.500029219998	128
5	2087	1.500050499997	129
5	2111	1.510021379999	130
5	2119	1.510042659998	131
5	2149	1.520007939999	132
5	2159	1.520029219998	133
5	2167	1.520050499997	134
5	2191	1.530021379999	135
5	2199	1.530042659998	136
5	2229	1.540007939999	137
5	2239	1.540029219998	138
5	2247	1.540050499997	139
5	2271	1.550021379999	140
5	2279	1.550042659998	141
5	2309	1.560007939999	142
5	2319	1.560029219998	143
5	2327	1.560050499997	144
5	2351	1.570021379999	145
5	2359	1.570042659998	146
5	2389	1.580007939999	147
5	2399	1.580029219998	148
5	2407	1.580050499997	149
5	2431	1.590021379999	150
5	2439	1.590042659998	151
5	2469	1.600007939999	152
5	2479	1.600029219998	153
5	2487	1.600050499997	154
5	2511	1.610021379999	155
5	2519	1.610042659998	156
5	2549	1.620007939999	157
5	2559	1.620029219998	158
5	2567	1.620050499997	159
5	2591	1.630021379999	160
5	2599	1.630042659998	161
5	2629	1.640007939999	162
5	2639	1.640029219998	163
5	2647	1.640050499997	164
5	2671	1.650021379999	165
5	2679	1.650042659998	166
5	2709	1.660007939999	167
5	2719	1.660029219998	168
5	2727	1.660050499997	169
5	2751	1.670021379999	170
5	2759	1.670042659998	171
5	2789	1.680007939999	172
5	2799	1.680029219998	173
5	2807	1.680050499997	174
5	2831	1.690021379999	175
5	2839	1.690042659998	176
5	2869	1.700007939999	177
5	2879	1.700029219998	178
5	2887	1.700050499997	179
5	2911	1.710021379999	180
5	2919	1.710042659998	181
5	2949	1.720007939999	182
5	2959	1.720029219998	183
5	2967	1.720050499997	184
5	2991	1.730021379999	185
5	2999	1.730042659998	186
5	3029	1.740007939999	187
5	3039	1.740029219998	188
5	3047	1.740050499997	189
5	3071	1.750021379999	190
5	3079	1.750042659998	191
5	3109	1.760007939999	192
5	3119	1.760029219998	193
5	3127	1.760050499997	194
5	3151	1.770021379999	195
5	3159	1.770042659998	196
5	3189	1.780007939999	197
5	3199	1.780029219998	198
5	3207	1.780050499997	199
5	3231	1.790021379999	200
5	3239	1.790042659998	201
5	3269	1.800007939999	202
5	3279	1.800029219998	203
5	3287	1.800050499997	204
5	3311	1.810021379999	205
5	3319	1.810042659998	206
5	3349	1.820007939999	207
5	3359	1.820029219998	208
5	3367	1.820050499997	209
5	3391	1.830021379999	210
5	3399	1.830042659998	211
5	3429	1.840007939999	212
5	3439	1.840029219998	213
5	3447	1.840050499997	214
5	3471	1.850021379999	215
5	3479	1.850042659998	216
5	3509	1.860007939999	217
5	3519	1.860029219998	218
5	3527	1.860050499997	219
5	3551	1.870021379999	220
5	3559	1.870042659998	221
5	3589	1.880007939999	222
5	3599	1.880029219998	223
5	3607	1.880050499997	224
5	3631	1.890021379999	225
5	3639	1.890042659998	226
5	3669	1.900007939999	227
5	3679	1.900029219998	228
5	3687	1.900050499997	229
5	3711	1.910021379999	230
5	3719	1.910042659998	231
5	3749	1.920007939999	232
5	3759	1.920029219998	233
5	3767	1.920050499997	234
5	3791	1.930021379999	235
5	3799	1.930042659998	236
5	3829	1.940007939999	237
5	3839	1.940029219998	238
5	3847	1.940050499997	239
5	3871	1.950021379999	240
5	3879	1.950042659998	241
5	3909	1.960007939999	242
5	3919	1.960029219998	243
5	3927	1.960050499997	244
5	3951	1.970021379999	245
5	3959	1.970042659998	246
5	3989	1.980007939999	247
5	3999	1.980029219998	248
5	4007	1.980050499997	249
5	4031	1.990021379999	250
5	4039	1.990042659998	251
5	4071	2.000007939999	252
5	4081	2.000029219998	253
5	4089	2.000050499997	254
5	4109	2.010006819999	255
5	4137	2.010035019997	256
5	4145	2.010056299996	257
5	4175	2.020007939999	258
5	4185	2.020029219998	259
5	4193	2.020050499997	260
5	4217	2.030021379999	261
5	4225	2.030042659998	262
5	4255	2.040007939999	263
5	4265	2.040029219998	264
5	4273	2.040050499997	265
5	4297	2.050021379999	266
5	4305	2.050042659998	267
5	4335	2.060007939999	268
5	4345	2.060029219998	269
5	4353	2.060050499997	270
5	4377	2.070021379999	271
5	4385	2.070042659998	272
5	4415	2.080007939999	273
5	4425	2.080029219998	274
5	4433	2.080050499997	275
5	4457	2.090021379999	276
5	4465	2.090042659998	277
5	4495	2.100007939999	278
5	4505	2.100029219998	279
5	4513	2.100050499997	280
5	4537	2.110021379999	281
5	4545	2.110042659998	282
5	4575	2.120007939999	283
5	4585	2.120029219998	284
5	4593	2.120050499997	285
5	4617	2.130021379999	286
5	4625	2.130042659998	287
5	4655	2.140007939999	288
5	4665	2.140029219998	289
5	4673	2.140050499997	290
5	4697	2.150021379999	291
5	4705	2.150042659998	292
5	4735	2.160007939999	293
5	4745	2.160029219998	294
5	4753	2.160050499997	295
5	4777	2.170021379999	296
5	4785	2.170042659998	297
5	4815	2.180007939999	298
5	4825	2.180029219998	299
5	4833	2.180050499997	300
5	4857	2.190021379999	301
5	4865	2.190042659998	302
5	4895	2.200007939999	303
5	4905	2.200029219998	304
5	4913	2.200050499997	305
5	4937	2.210021379999	306
5	4945	2.210042659998	307
5	4975	2.220007939999	308
5	4985	2.220029219998	309
5	4993	2.220050499997	310
5	5017	2.230021379999	311
5	5025	2.230042659998	312
5	5055	2.240007939999	313
5	5065	2.240029219998	314
5	5073	2.240050499997	315
5	5097	2.250021379999	316
5	5105	2.250042659998	317
5	5135	2.260007939999	318
5	5145	2.260029219998	319
5	5153	2.260050499997	320
5	5177	2.270021379999	321
5	5185	2.270042659998	322
5	5215	2.280007939999	323
5	5225	2.280029219998	324
5	5233	2.280050499997	325
5	5257	2.290021379999	326
5	5265	2.290042659998	327
5	5295	2.300007939999	328
5	5305	2.300029219998	329
5	5313	2.300050499997	330
5	5337	2.310021379999	331
5	5345	2.310042659998	332
5	5375	2.320007939999	333
5	5385	2.320029219998	334
5	5393	2.320050499997	335
5	5417	2.330021379999	336
5	5425	2.330042659998	337
5	5455	2.340007939999	338
5	5465	2.340029219998	339
5	5473	2.340050499997	340
5	5497	2.350021379999	341
5	5505	2.350042659998	342
5	5535	2.360007939999	343
5	5545	2.360029219998	344
5	5553	2.360050499997	345
5	5577	2.370021379999	346
5	5585	2.370042659998	347
5	5615	2.380007939999	348
5	5625	2.380029219998	349
5	5633	2.380050499997	350
5	5657	2.390021379999	351
5	5665	2.390042659998	352
5	5695	2.400007939999	353
5	5705	2.400029219998	354
5	5713	2.400050499997	355
5	5737	2.410021379999	356
5	5745	2.410042659998	357
5	5775	2.420007939999	358
5	5785	2.420029219998	359
5	5793	2.420050499997	360
5	5817	2.430021379999	361
5	5825	2.430042659998	362
5	5855	2.440007939999	363
5	5865	2.440029219998	364
5	5873	2.440050499997	365
5	5897	2.450021379999	366
5	5905	2.450042659998	367
5	5935	2.460007939999	368
5	5945	2.460029219998	369
5	5953	2.460050499997	370
5	5977	2.470021379999	371
5	5985	2.470042659998	372
5	6015	2.480007939999	373
5	6025	2.480029219998	374
5	6033	2.480050499997	375
5	6057	2.490021379999	376
5	6065	2.490042659998	377
5	6097	2.500007939999	378
5	6107	2.500029219998	379
5	6115	2.500050499997	380
5	6139	2.510021379999	381
5	6147	2.510042659998	382
5	6177	2.520007939999	383
5	6187	2.520029219998	384
5	6195	2.520050499997	385
5	6219	2.530021379999	386
5	6227	2.530042659998	387
5	6257	2.540007939999	388
5	6267	2.540029219998	389
5	6275	2.540050499997	390
5	6299	2.550021379999	391
5	6307	2.550042659998	392
5	6337	2.560007939999	393
5	6347	2.560029219998	394
5	6355	2.560050499997	395
5	6379	2.570021379999	396
5	6387	2.570042659998	397
5	6417	2.580007939999	398
5	6427	2.580029219998	399
5	6435	2.580050499997	400
5	6459	2.590021379999	401
5	6467	2.590042659998	402
5	6497	2.600007939999	403
5	6507	2.600029219998	404
5	6515	2.600050499997	405
5	6539	2.610021379999	406
5	6547	2.610042659998	407
5	6577	2.620007939999	408
5	6587	2.620029219998	409
5	6595	2.620050499997	410
5	6619	2.630021379999	411
5	6627	2.630042659998	412
5	6657	2.640007939999	413
5	6667	2.640029219998	414
5	6675	2.640050499997	415
5	6699	2.650021379999	416
5	6707	2.650042659998	417
5	6737	2.660007939999	418
5	6747	2.660029219998	419
5	6755	2.660050499997	420
5	6779	2.670021379999	421
5	6787	2.670042659998	422
5	6817	2.680007939999	423
5	6827	2.680029219998	424
5	6835	2.680050499997	425
5	6859	2.690021379999	426
5	6867	2.690042659998	427
5	6897	2.700007939999	428
5	6907	2.700029219998	429
5	6915	2.700050499997	430
5	6939	2.710021379999	431
5	6947	2.710042659998	432
5	6977	2.720007939999	433
5	6987	2.720029219998	434
5	6995	2.720050499997	435
5	7019	2.730021379999	436
5	7027	2.730042659998	437
5	7057	2.740007939999	438
5	7067	2.740029219998	439
5	7075	2.740050499997	440
5	7099	2.750021379999	441
5	7107	2.750042659998	442
5	7137	2.760007939999	443
5	7147	2.760029219998	444
5	7155	2.760050499997	445
5	7179	2.770021379999	446
5	7187	2.770042659998	447
5	7217	2.780007939999	448
5	7227	2.780029219998	449
5	7235	2.780050499997	450
5	7259	2.790021379999	451
5	7267	2.790042659998	452
5	7297	2.800007939999	453
5	7307	2.800029219998	454
5	7315	2.800050499997	455
5	7339	2.810021379999	456
5	7347	2.810042659998	457
5	7377	2.820007939999	458
5	7387	2.820029219998	459
5	7395	2.820050499997	460
5	7419	2.830021379999	461
5	7427	2.830042659998	462
5	7457	2.840007939999	463
5	7467	2.840029219998	464
5	7475	2.840050499997	465
5	7499	2.850021379999	466
5	7507	2.850042659998	467
5	7537	2.860007939999	468
5	7547	2.860029219998	469
5	7555	2.860050499997	470
5	7579	2.870021379999	471
5	7587	2.870042659998	472
5	7617	2.880007939999	473
5	7627	2.880029219998	474
5	7635	2.880050499997	475
5	7659	2.890021379999	476
5	7667	2.890042659998	477
5	7697	2.900007939999	478
5	7707	2.900029219998	479
5	7715	2.900050499997	480
5	7739	2.910021379999	481
5	7747	2.910042659998	482
5	7777	2.920007939999	483
5	7787	2.920029219998	484
5	7795	2.920050499997	485
5	7819	2.930021379999	486
5	7827	2.930042659998	487
5	7857	2.940007939999	488
5	7867	2.940029219998	489
5	7875	2.940050499997	490
5	7899	2.950021379999	491
5	7907	2.950042659998	492
5	7937	2.960007939999	493
5	7947	2.960029219998	494
5	7955	2.960050499997	495
5	7979	2.970021379999	496
5	7987	2.970042659998	497
5	8017	2.980007939999	498
5	8027	2.980029219998	499
5	8035	2.980050499997	500
5	8059	2.990021379999	501
5	8067	2.990042659998	502
5	8099	3.000007939999	503
5	8109	3.000029219998	504
5	8117	3.000050499997	505
5	8141	3.010021379999	506
5	8149	3.010042659998	507
5	8173	3.020006819999	508
5	8203	3.020021579997	509
5	8213	3.020042859996	510
5	8221	3.020064139995	511
5	8245	3.030021379999	512
5	8253	3.030042659998	513
5	8283	3.040007939999	514
5	8293	3.040029219998	515
5	8301	3.040050499997	516
5	8325	3.050021379999	517
5	8333	3.050042659998	518
5	8363	3.060007939999	519
5	8373	3.060029219998	520
5	8381	3.060050499997	521
5	8405	3.070021379999	522
5	8413	3.070042659998	523
5	8443	3.080007939999	524
5	8453	3.080029219998	525
5	8461	3.080050499997	526
5	8485	3.090021379999	527
5	8493	3.090042659998	528
5	8523	3.100007939999	529
5	8533	3.100029219998	530
5	8541	3.100050499997	531
5	8565	3.110021379999	532
5	8573	3.110042659998	533
5	8603	3.120007939999	534
5	8613	3.120029219998	535
5	8621	3.120050499997	536
5	8645	3.130021379999	537
5	8653	3.130042659998	538
5	8683	3.140007939999	539
5	8693	3.140029219998	540
5	8701	3.140050499997	541
5	8725	3.150021379999	542
5	8733	3.150042659998	543
5	8763	3.160007939999	544
5	8773	3.160029219998	545
5	8781	3.160050499997	546
5	8805	3.170021379999	547
5	8813	3.170042659998	548
5	8843	3.180007939999	549
5	8853	3.180029219998	550
5	8861	3.180050499997	551
5	8885	3.190021379999	552
5	8893	3.190042659998	553
5	8923	3.200007939999	554
5	8933	3.200029219998	555
5	8941	3.200050499997	556
5	8965	3.210021379999	557
5	8973	3.210042659998	558
5	9003	3.220007939999	559
5	9013	3.220029219998	560
5	9021	3.220050499997	561
5	9045	3.230021379999	562
5	9053	3.230042659998	563
5	9083	3.240007939999	564
5	9093	3.240029219998	565
5	9101	3.240050499997	566
5	9125	3.250021379999	567
5	9133	3.250042659998	568
5	9163	3.260007939999	569
5	9173	3.260029219998	570
5	9181	3.260050499997	571
5	9205	3.270021379999	572
5	9213	3.270042659998	573
5	9243	3.280007939999	574
5	9253	3.280029219998	575
5	9261	3.280050499997	576
5	9285	3.290021379999	577
5	9293	3.290042659998	578
5	9323	3.300007939999	579
5	9333	3.300029219998	580
5	9341	3.300050499997	581
5	9365	3.310021379999	582
5	9373	3.310042659998	583
5	9403	3.320007939999	584
5	9413	3.320029219998	585
5	9421	3.320050499997	586
5	9445	3.330021379999	587
5	9453	3.330042659998	588
5	9483	3.340007939999	589
5	9493	3.340029219998	590
5	9501	3.340050499997	591
5	9525	3.350021379999	592
5	9533	3.350042659998	593
5	9563	3.360007939999	594
5	9573	3.360029219998	595
5	9581	3.360050499997	596
5	9605	3.370021379999	597
5	9613	3.370042659998	598
5	9643	3.380007939999	599
5	9653	3.380029219998	600
5	9661	3.380050499997	601
5	9685	3.390021379999	602
5	9693	3.390042659998	603
5	9723	3.400007939999	604
5	9733	3.400029219998	605
5	9741	3.400050499997	606
5	9765	3.410021379999	607
5	9773	3.410042659998	608
5	9803	3.420007939999	609
5	9813	3.420029219998	610
5	9821	3.420050499997	611
5	9845	3.430021379999	612
5	9853	3.430042659998	613
5	9883	3.440007939999	614
5	9893	3.440029219998	615
5	9901	3.440050499997	616
5	9925	3.450021379999	617
5	9933	3.450042659998	618
5	9963	3.460007939999	619
5	9973	3.460029219998	620
5	9981	3.460050499997	621
5	10005	3.470021379999	622
5	10013	3.470042659998	623
5	10043	3.480007939999	624
5	10053	3.480029219998	625
5	10061	3.480050499997	626
5	10085	3.490021379999	627
5	10093	3.490042659998	628
5	10125	3.500007939999	629
5	10135	3.500029219998	630
5	10143	3.500050499997	631
5	10167	3.510021379999	632
5	10175	3.510042659998	633
5	10205	3.520007939999	634
5	10215	3.520029219998	635
5	10223	3.520050499997	636
5	10247	3.530021379999	637
5	10255	3.530042659998	638
5	10285	3.540007939999	639
5	10295	3.540029219998	640
5	10303	3.540050499997	641
5	10327	3.550021379999	642
5	10335	3.550042659998	643
5	10365	3.560007939999	644
5	10375	3.560029219998	645
5	10383	3.560050499997	646
5	10407	3.570021379999	647
5	10415	3.570042659998	648
5	10445	3.580007939999	649
5	10455	3.580029219998	650
5	10463	3.580050499997	651
5	10487	3.590021379999	652
5	10495	3.590042659998	653
5	10525	3.600007939999	654
5	10535	3.600029219998	655
5	10543	3.600050499997	656
5	10567	3.610021379999	657
5	10575	3.610042659998	658
5	10605	3.620007939999	659
5	10615	3.620029219998	660
5	10623	3.620050499997	661
5	10647	3.630021379999	662
5	10655	3.630042659998	663
5	10685	3.640007939999	664
5	10695	3.640029219998	665
5	10703	3.640050499997	666
5	10727	3.650021379999	667
5	10735	3.650042659998	668
5	10765	3.660007939999	669
5	10775	3.660029219998	670
5	10783	3.660050499997	671
5	10807	3.670021379999	672
5	10815	3.670042659998	673
5	10845	3.680007939999	674
5	10855	3.680029219998	675
5	10863	3.680050499997	676
5	10887	3.690021379999	677
5	10895	3.690042659998	678
5	10925	3.700007939999	679
5	10935	3.700029219998	680
5	10943	3.700050499997	681
5	10967	3.710021379999	682
5	10975	3.710042659998	683
5	11005	3.720007939999	684
5	11015	3.720029219998	685
5	11023	3.720050499997	686
5	11047	3.730021379999	687
5	11055	3.730042659998	688
5	11085	3.740007939999	689
5	11095	3.740029219998	690
5	11103	3.740050499997	691
5	11127	3.750021379999	692
5	11135	3.750042659998	693
5	11165	3.760007939999	694
5	11175	3.760029219998	695
5	11183	3.760050499997	696
5	11207	3.770021379999	697
5	11215	3.770042659998	698
5	11245	3.780007939999	699
5	11255	3.780029219998	700
5	11263	3.780050499997	701
5	11287	3.790021379999	702
5	11295	3.790042659998	703
5	11325	3.800007939999	704
5	11335	3.800029219998	705
5	11343	3.800050499997	706
5	11367	3.810021379999	707
5	11375	3.810042659998	708
5	11405	3.820007939999	709
5	11415	3.820029219998	710
5	11423	3.820050499997	711
5	11447	3.830021379999	712
5	11455	3.830042659998	713
5	11485	3.840007939999	714
5	11495	3.840029219998	715
5	11503	3.840050499997	716
5	11527	3.850021379999	717
5	11535	3.850042659998	718
5	11565	3.860007939999	719
5	11575	3.860029219998	720
5	11583	3.860050499997	721
5	11607	3.870021379999	722
5	11615	3.870042659998	723
5	11645	3.880007939999	724
5	11655	3.880029219998	725
5	11663	3.880050499997	726
5	11687	3.890021379999	727
5	11695	3.890042659998	728
5	11725	3.900007939999	729
5	11735	3.900029219998	730
5	11743	3.900050499997	731
5	11767	3.910021379999	732
5	11775	3.910042659998	733
5	11805	3.920007939999	734
5	11815	3.920029219998	735
5	11823	3.920050499997	736
5	11847	3.930021379999	737
5	11855	3.930042659998	738
5	11885	3.940007939999	739
5	11895	3.940029219998	740
5	11903	3.940050499997	741
5	11927	3.950021379999	742
5	11935	3.950042659998	743
5	11965	3.960007939999	744
5	11975	3.960029219998	745
5	11983	3.960050499997	746
5	12007	3.970021379999	747
5	12015	3.970042659998	748
5	12045	3.980007939999	749
5	12055	3.980029219998	750
5	12063	3.980050499997	751
5	12087	3.990021379999	752
5	12095	3.990042659998	753
5	12127	4.000007939999	754
5	12137	4.000029219998	755
5	12145	4.000050499997	756
5	12169	4.010021379999	757
5	12177	4.010042659998	758
5	12207	4.020007939999	759
5	12217	4.020029219998	760
5	12225	4.020050499997	761
5	12245	4.030006819999	762
5	12273	4.030035019997	763
5	12281	4.030056299996	764
5	12311	4.040007939999	765
5	12321	4.040029219998	766
5	12329	4.040050499997	767
5	12353	4.050021379999	768
5	12361	4.050042659998	769
5	12391	4.060007939999	770
5	12401	4.060029219998	771
5	12409	4.060050499997	772
5	12433	4.070021379999	773
5	12441	4.070042659998	774
5	12471	4.080007939999	775
5	12481	4.080029219998	776
5	12489	4.080050499997	777
5	12513	4.090021379999	778
5	12521	4.090042659998	779
5	12551	4.100007939999	780
5	12561	4.100029219998	781
5	12569	4.100050499997	782
5	12593	4.110021379999	783
5	12601	4.110042659998	784
5	12631	4.120007939999	785
5	12641	4.120029219998	786
5	12649	4.120050499997	787
5	12673	4.130021379999	788
5	12681	4.130042659998	789
5	12711	4.140007939999	790
5	12721	4.140029219998	791
5	12729	4.140050499997	792
5	12753	4.150021379999	793
5	12761	4.150042659998	794
5	12791	4.160007939999	795
5	12801	4.160029219998	796
5	12809	4.160050499997	797
5	12833	4.170021379999	798
5	12841	4.170042659998	799
5	12871	4.180007939999	800
5	12881	4.180029219998	801
5	12889	4.180050499997	802
5	12913	4.190021379999	803
5	12921	4.190042659998	804
5	12951	4.200007939999	805
5	12961	4.200029219998	806
5	12969	4.200050499997	807
5	12993	4.210021379999	808
5	13001	4.210042659998	809
5	13031	4.220007939999	810
5	13041	4.220029219998	811
5	13049	4.220050499997	812
5	13073	4.230021379999	813
5	13081	4.230042659998	814
5	13111	4.240007939999	815
5	13121	4.240029219998	816
5	13129	4.240050499997	817
5	13153	4.250021379999	818
5	13161	4.250042659998	819
5	13191	4.260007939999	820
5	13201	4.260029219998	821
5	13209	4.260050499997	822
5	13233	4.270021379999	823
5	13241	4.270042659998	824
5	13271	4.280007939999	825
5	13281	4.280029219998	826
5	13289	4.280050499997	827
5	13313	4.290021379999	828
5	13321	4.290042659998	829
5	13351	4.300007939999	830
5	13361	4.300029219998	831
5	13369	4.300050499997	832
5	13393	4.310021379999	833
5	13401	4.310042659998	834
5	13431	4.320007939999	835
5	13441	4.320029219998	836
5	13449	4.320050499997	837
5	13473	4.330021379999	838
5	13481	4.330042659998	839
5	13511	4.340007939999	840
5	13521	4.340029219998	841
5	13529	4.340050499997	842
5	13553	4.350021379999	843
5	13561	4.350042659998	844
5	13591	4.360007939999	845
5	13601	4.360029219998	846
5	13609	4.360050499997	847
5	13633	4.370021379999	848
5	13641	4.370042659998	849
5	13671	4.380007939999	850
5	13681	4.380029219998	851
5	13689	4.380050499997	852
5	13713	4.390021379999	853
5	13721	4.390042659998	854
5	13751	4.400007939999	855
5	13761	4.400029219998	856
5	13769	4.400050499997	857
5	13793	4.410021379999	858
5	13801	4.410042659998	859
5	13831	4.420007939999	860
5	13841	4.420029219998	861
5	13849	4.420050499997	862
5	13873	4.430021379999	863
5	13881	4.430042659998	864
5	13911	4.440007939999	865
5	13921	4.440029219998	866
5	13929	4.440050499997	867
5	13953	4.450021379999	868
5	13961	4.450042659998	869
5	13991	4.460007939999	870
5	14001	4.460029219998	871
5	14009	4.460050499997	872
5	14033	4.470021379999	873
5	14041	4.470042659998	874
5	14071	4.480007939999	875
5	14081	4.480029219998	876
5	14089	4.480050499997	877
5	14113	4.490021379999	878
5	14121	4.490042659998	879
5	14153	4.500007939999	880
5	14163	4.500029219998	881
5	14171	4.500050499997	882
5	14195	4.510021379999	883
5	14203	4.510042659998	884
5	14233	4.520007939999	885
5	14243	4.520029219998	886
5	14251	4.520050499997	887
5	14275	4.530021379999	888
5	14283	4.530042659998	889
5	14313	4.540007939999	890
5	14323	4.540029219998	891
5	14331	4.540050499997	892
5	14355	4.550021379999	893
5	14363	4.550042659998	894
5	14393	4.560007939999	895
5	14403	4.560029219998	896
5	14411	4.560050499997	897
5	14435	4.570021379999	898
5	14443	4.570042659998	899
5	14473	4.580007939999	900
5	14483	4.580029219998	901
5	14491	4.580050499997	902
5	14515	4.590021379999	903
5	14523	4.590042659998	904
5	14553	4.600007939999	905
5	14563	4.600029219998	906
5	14571	4.600050499997	907
5	14595	4.610021379999	908
5	14603	4.610042659998	909
5	14633	4.620007939999	910
5	14643	4.620029219998	911
5	14651	4.620050499997	912
5	14675	4.630021379999	913
5	14683	4.630042659998	914
5	14713	4.640007939999	915
5	14723	4.640029219998	916
5	14731	4.640050499997	917
5	14755	4.650021379999	918
5	14763	4.650042659998	919
5	14793	4.660007939999	920
5	14803	4.660029219998	921
5	14811	4.660050499997	922
5	14835	4.670021379999	923
5	14843	4.670042659998	924
5	14873	4.680007939999	925
5	14883	4.680029219998	926
5	14891	4.680050499997	927
5	14915	4.690021379999	928
5	14923	4.690042659998	929
5	14953	4.700007939999	930
5	14963	4.700029219998	931
5	14971	4.700050499997	932
5	14995	4.710021379999	933
5	15003	4.710042659998	934
5	15033	4.720007939999	935
5	15043	4.720029219998	936
5	15051	4.720050499997	937
5	15075	4.730021379999	938
5	15083	4.730042659998	939
5	15113	4.740007939999	940
5	15123	4.740029219998	941
5	15131	4.740050499997	942
5	15155	4.750021379999	943
5	15163	4.750042659998	944
5	15193	4.760007939999	945
5	15203	4.760029219998	946
5	15211	4.760050499997	947
5	15235	4.770021379999	948
5	15243	4.770042659998	949
5	15273	4.780007939999	950
5	15283	4.780029219998	951
5	15291	4.780050499997	952
5	15315	4.790021379999	953
5	15323	4.790042659998	954
5	15353	4.800007939999	955
5	15363	4.800029219998	956
5	15371	4.800050499997	957
5	15395	4.810021379999	958
5	15403	4.810042659998	959
5	15433	4.820007939999	960
5	15443	4.820029219998	961
5	15451	4.820050499997	962
5	15475	4.830021379999	963
5	15483	4.830042659998	964
5	15513	4.840007939999	965
5	15523	4.840029219998	966
5	15531	4.840050499997	967
5	15555	4.850021379999	968
5	15563	4.850042659998	969
5	15593	4.860007939999	970
5	15603	4.860029219998	971
5	15611	4.860050499997	972
5	15635	4.870021379999	973
5	15643	4.870042659998	974
5	15673	4.880007939999	975
5	15683	4.880029219998	976
5	15691	4.880050499997	977
5	15715	4.890021379999	978
5	15723	4.890042659998	979
5	15753	4.900007939999	980
5	15763	4.900029219998	981
5	15771	4.900050499997	982
5	15795	4.910021379999	983
5	15803	4.910042659998	984
5	15833	4.920007939999	985
5	15843	4.920029219998	986
5	15851	4.920050499997	987
5	15875	4.930021379999	988
5	15883	4.930042659998	989
5	15913	4.940007939999	990
5	15923	4.940029219998	991
5	15931	4.940050499997	992
5	15955	4.950021379999	993
5	15963	4.950042659998	994
5	15993	4.960007939999	995
5	16003	4.960029219998	996
5	16011	4.960050499997	997
5	16035	4.970021379999	998
5	16043	4.970042659998	999
5	16073	4.980007939999	1000
5	16083	4.980029219998	1001
5	16091	4.980050499997	1002
5	16115	4.990021379999	1003
5	16123	4.990042659998	1004
5	16155	5.000007939999	1005
5	16165	5.000029219998	1006
5	16173	5.000050499997	1007
5	16197	5.010021379999	1008
5	16205	5.010042659998	1009
5	16235	5.020007939999	1010
5	16245	5.020029219998	1011
5	16253	5.020050499997	1012
5	16277	5.030021379999	1013
5	16285	5.030042659998	1014
5	16309	5.040006819999	1015
5	16339	5.040021579997	1016
5	16349	5.040042859996	1017
5	16357	5.040064139995	1018
5	16381	5.050021379999	1019
5	16389	5.050042659998	1020
5	16419	5.060007939999	1021
5	16429	5.060029219998	1022
5	16437	5.060050499997	1023
5	16461	5.070021379999	1024
5	16469	5.070042659998	1025
5	16499	5.080007939999	1026
5	16509	5.080029219998	1027
5	16517	5.080050499997	1028
5	16541	5.090021379999	1029
5	16549	5.090042659998	1030
5	16579	5.100007939999	1031
5	16589	5.100029219998	1032
5	16597	5.100050499997	1033
5	16621	5.110021379999	1034
5	16629	5.110042659998	1035
5	16659	5.120007939999	1036