file 66886 1420658267                                           
version 2
run Pingv4-0-20150107-19:11:43-1464
attr configname Pingv4
attr datetime 20150107-19:11:43
attr experiment Pingv4
attr inifile omnetpp.ini
attr iterationvars ""
attr iterationvars2 $repetition=0
attr measurement ""
attr network LispIariaFunc
attr processid 1464
attr repetition 0
attr replication #0
attr resultdir results
attr runnumber 0
attr seedset 0
vector 0  LispIariaFunc.xTR_A1.UDP  sentPk:vector(packetBytes)  ETV
attr interpolationmode none
attr source sentPk
attr title "packets sent, vector(packetBytes)"
0	29103 243 29 2404 0 76.00001642 13 8 84 360 23040
vector 56  LispIariaFunc.xTR_B1.UDP  sentPk:vector(packetBytes)  ETV
attr interpolationmode none
attr source sentPk
attr title "packets sent, vector(packetBytes)"
56	34875 230 31 2337 0 74.00007016 12 8 84 200 8992
vector 275  LispIariaFunc.xTR_A2.UDP  sentPk:vector(packetBytes)  ETV
attr interpolationmode none
attr source sentPk
attr title "packets sent, vector(packetBytes)"
275	57516 169 33 1708 0 61.000018339999 9 8 8 72 576
vector 309  LispIariaFunc.xTR_B2.UDP  sentPk:vector(packetBytes)  ETV
attr interpolationmode none
attr source sentPk
attr title "packets sent, vector(packetBytes)"
309	60983 169 35 1709 0 61.000018339999 9 8 8 72 576
vector 5  LispIariaFunc.xTR_A1.networkLayer.arp  sentReq:vector  ETV
attr title "ARP request sent, vector"
5	29820 10 45 45 0 0 1 1 1 1 1
vector 7  LispIariaFunc.xTR_A1.networkLayer.arp  initiatedResolution:vector  ETV
attr title "ARP initiated resolutions, vector"
7	29830 10 45 45 0 0 1 1 1 1 1
vector 61  LispIariaFunc.xTR_B1.networkLayer.arp  sentReq:vector  ETV
attr title "ARP request sent, vector"
61	35644 11 47 47 0 0 1 1 1 1 1
vector 63  LispIariaFunc.xTR_B1.networkLayer.arp  initiatedResolution:vector  ETV
attr title "ARP initiated resolutions, vector"
63	35655 11 47 47 0 0 1 1 1 1 1
vector 280  LispIariaFunc.xTR_A2.networkLayer.arp  sentReq:vector  ETV
attr title "ARP request sent, vector"
280	58101 12 49 49 0 0 1 1 1 1 1
vector 282  LispIariaFunc.xTR_A2.networkLayer.arp  initiatedResolution:vector  ETV
attr title "ARP initiated resolutions, vector"
282	58113 12 49 49 0 0 1 1 1 1 1
vector 314  LispIariaFunc.xTR_B2.networkLayer.arp  sentReq:vector  ETV
attr title "ARP request sent, vector"
314	61617 36 51 2074 0 72.00003732 2 1 1 2 2
vector 316  LispIariaFunc.xTR_B2.networkLayer.arp  initiatedResolution:vector  ETV
attr title "ARP initiated resolutions, vector"
316	61653 36 51 2074 0 72.00003732 2 1 1 2 2
vector 19  LispIariaFunc.xTR_A1.eth[0].encap  encapPk:vector(packetBytes)  ETV
attr interpolationmode none
attr source encapPk
attr title "packets encapsulated, vector(packetBytes)"
19	31285 406 57 2408 0 76.00001642 18 28 104 808 49824
vector 75  LispIariaFunc.xTR_B1.eth[0].encap  encapPk:vector(packetBytes)  ETV
attr interpolationmode none
attr source encapPk
attr title "packets encapsulated, vector(packetBytes)"
75	37132 380 58 2341 0 74.00007016 17 28 104 628 28976
vector 294  LispIariaFunc.xTR_A2.eth[0].encap  encapPk:vector(packetBytes)  ETV
attr interpolationmode none
attr source encapPk
attr title "packets encapsulated, vector(packetBytes)"
294	59351 322 59 1724 0 61.000018339999 14 28 40 440 14240
vector 328  LispIariaFunc.xTR_B2.eth[0].encap  encapPk:vector(packetBytes)  ETV
attr interpolationmode none
attr source encapPk
attr title "packets encapsulated, vector(packetBytes)"
328	62965 321 60 1725 0 61.000018339999 14 28 40 440 14240
vector 15  LispIariaFunc.xTR_A1.eth[0].mac  rxPkFromHL:vector(packetBytes)  ETV
attr interpolationmode none
attr source rxPkFromHL
attr title "packet bytes from higher layer, vector(packetBytes)"
15	30879 406 61 2409 0 76.00001642 18 64 122 1336 107472
vector 71  LispIariaFunc.xTR_B1.eth[0].mac  rxPkFromHL:vector(packetBytes)  ETV
attr interpolationmode none
attr source rxPkFromHL
attr title "packet bytes from higher layer, vector(packetBytes)"
71	36752 380 62 2342 0 74.00007016 17 64 122 1156 81800
vector 290  LispIariaFunc.xTR_A2.eth[0].mac  rxPkFromHL:vector(packetBytes)  ETV
attr interpolationmode none
attr source rxPkFromHL
attr title "packet bytes from higher layer, vector(packetBytes)"
290	59029 322 63 1728 0 61.000018339999 14 64 64 896 57344
vector 324  LispIariaFunc.xTR_B2.eth[0].mac  rxPkFromHL:vector(packetBytes)  ETV
attr interpolationmode none
attr source rxPkFromHL
attr title "packet bytes from higher layer, vector(packetBytes)"
324	62644 321 64 1729 0 61.000018339999 14 64 64 896 57344
vector 10  LispIariaFunc.xTR_A1.eth[0].mac  txPk:vector(packetBytes)  ETV
attr interpolationmode none
attr source txPk
attr title "packets transmitted, vector(packetBytes)"
10	29888 433 65 2280 0.00000576 74.00002682 17 64 122 1214 92588
vector 66  LispIariaFunc.xTR_B1.eth[0].mac  txPk:vector(packetBytes)  ETV
attr interpolationmode none
attr source txPk
attr title "packets transmitted, vector(packetBytes)"
66	35716 432 66 2344 0.00000576 74.00008056 17 64 122 1156 81800
vector 285  LispIariaFunc.xTR_A2.eth[0].mac  txPk:vector(packetBytes)  ETV
attr interpolationmode none
attr source txPk
attr title "packets transmitted, vector(packetBytes)"
285	58177 374 67 1806 0.00000576 61.000025919997 14 64 64 896 57344
vector 319  LispIariaFunc.xTR_B2.eth[0].mac  txPk:vector(packetBytes)  ETV
attr interpolationmode none
attr source txPk
attr title "packets transmitted, vector(packetBytes)"
319	61741 373 68 1807 0.00000576 61.000025919997 14 64 64 896 57344
vector 228  LispIariaFunc.Core.eth[1].mac  rxPkOk:vector(packetBytes)  ETV
attr interpolationmode none
attr source rxPkOk
attr title "packets received OK, vector(packetBytes)"
228	49545 450 69 2281 0.00000581 74.00002687 17 64 122 1214 92588
vector 229  LispIariaFunc.Core.eth[1].mac  passedUpPk:vector(packetBytes)  ETV
attr interpolationmode none
attr source packetSentToUpper
attr title "packets passed to higher layer, vector(packetBytes)"
229	49995 450 69 2281 0.00000581 74.00002687 17 64 122 1214 92588
vector 252  LispIariaFunc.Core.eth[3].mac  rxPkOk:vector(packetBytes)  ETV
attr interpolationmode none
attr source rxPkOk
attr title "packets received OK, vector(packetBytes)"
252	53625 450 70 2345 0.00000581 74.00008061 17 64 122 1156 81800
vector 253  LispIariaFunc.Core.eth[3].mac  passedUpPk:vector(packetBytes)  ETV
attr interpolationmode none
attr source packetSentToUpper
attr title "packets passed to higher layer, vector(packetBytes)"
253	54075 450 70 2345 0.00000581 74.00008061 17 64 122 1156 81800
vector 240  LispIariaFunc.Core.eth[2].mac  rxPkOk:vector(packetBytes)  ETV
attr interpolationmode none
attr source rxPkOk
attr title "packets received OK, vector(packetBytes)"
240	51712 374 71 1810 0.00000581 61.000025969997 14 64 64 896 57344
vector 241  LispIariaFunc.Core.eth[2].mac  passedUpPk:vector(packetBytes)  ETV
attr interpolationmode none
attr source packetSentToUpper
attr title "packets passed to higher layer, vector(packetBytes)"
241	52086 374 71 1810 0.00000581 61.000025969997 14 64 64 896 57344
vector 264  LispIariaFunc.Core.eth[4].mac  rxPkOk:vector(packetBytes)  ETV
attr interpolationmode none
attr source rxPkOk
attr title "packets received OK, vector(packetBytes)"
264	55868 373 72 1811 0.00000581 61.000025969997 14 64 64 896 57344
vector 265  LispIariaFunc.Core.eth[4].mac  passedUpPk:vector(packetBytes)  ETV
attr interpolationmode none
attr source packetSentToUpper
attr title "packets passed to higher layer, vector(packetBytes)"
265	56241 373 72 1811 0.00000581 61.000025969997 14 64 64 896 57344
vector 237  LispIariaFunc.Core.eth[1].encap  decapPk:vector(packetBytes)  ETV
attr interpolationmode none
attr source decapPk
attr title "packets decapsulated, vector(packetBytes)"
237	51023 450 73 2282 0.00000581 74.00002687 17 28 104 704 39008
vector 261  LispIariaFunc.Core.eth[3].encap  decapPk:vector(packetBytes)  ETV
attr interpolationmode none
attr source decapPk
attr title "packets decapsulated, vector(packetBytes)"
261	55153 450 74 2346 0.00000581 74.00008061 17 28 104 628 28976
vector 249  LispIariaFunc.Core.eth[2].encap  decapPk:vector(packetBytes)  ETV
attr interpolationmode none
attr source decapPk
attr title "packets decapsulated, vector(packetBytes)"
249	52936 374 75 1818 0.00000581 61.000025969997 14 28 40 440 14240
vector 273  LispIariaFunc.Core.eth[4].encap  decapPk:vector(packetBytes)  ETV
attr interpolationmode none
attr source decapPk
attr title "packets decapsulated, vector(packetBytes)"
273	57143 373 76 1819 0.00000581 61.000025969997 14 28 40 440 14240
vector 236  LispIariaFunc.Core.eth[1].encap  encapPk:vector(packetBytes)  ETV
attr interpolationmode none
attr source encapPk
attr title "packets encapsulated, vector(packetBytes)"
236	50734 289 93 2351 0.00000581 74.00008061 11 28 104 384 18656
vector 260  LispIariaFunc.Core.eth[3].encap  encapPk:vector(packetBytes)  ETV
attr interpolationmode none
attr source encapPk
attr title "packets encapsulated, vector(packetBytes)"
260	54839 314 94 2287 0.00000581 74.00002687 12 28 104 412 19440
vector 248  LispIariaFunc.Core.eth[2].encap  encapPk:vector(packetBytes)  ETV
attr interpolationmode none
attr source encapPk
attr title "packets encapsulated, vector(packetBytes)"
248	52698 238 95 1836 0.00000581 61.000025969997 9 28 28 252 7056
vector 272  LispIariaFunc.Core.eth[4].encap  encapPk:vector(packetBytes)  ETV
attr interpolationmode none
attr source encapPk
attr title "packets encapsulated, vector(packetBytes)"
272	56879 264 96 2063 0.00000581 72.00002687 10 28 104 356 17872
vector 232  LispIariaFunc.Core.eth[1].mac  rxPkFromHL:vector(packetBytes)  ETV
attr interpolationmode none
attr source rxPkFromHL
attr title "packet bytes from higher layer, vector(packetBytes)"
232	50445 289 97 2352 0.00000581 74.00008061 11 64 122 762 55844
vector 256  LispIariaFunc.Core.eth[3].mac  rxPkFromHL:vector(packetBytes)  ETV
attr interpolationmode none
attr source rxPkFromHL
attr title "packet bytes from higher layer, vector(packetBytes)"
256	54525 314 98 2288 0.00000581 74.00002687 12 64 122 826 59940
vector 244  LispIariaFunc.Core.eth[2].mac  rxPkFromHL:vector(packetBytes)  ETV
attr interpolationmode none
attr source rxPkFromHL
attr title "packet bytes from higher layer, vector(packetBytes)"
244	52460 238 99 1840 0.00000581 61.000025969997 9 64 64 576 36864
vector 268  LispIariaFunc.Core.eth[4].mac  rxPkFromHL:vector(packetBytes)  ETV
attr interpolationmode none
attr source rxPkFromHL
attr title "packet bytes from higher layer, vector(packetBytes)"
268	56614 265 100 2064 0.00000581 72.00002687 10 64 122 698 51748
vector 227  LispIariaFunc.Core.eth[1].mac  txPk:vector(packetBytes)  ETV
attr interpolationmode none
attr source txPk
attr title "packets transmitted, vector(packetBytes)"
227	49255 290 105 2354 0.00001157 74.00009101 11 64 122 762 55844
vector 251  LispIariaFunc.Core.eth[3].mac  txPk:vector(packetBytes)  ETV
attr interpolationmode none
attr source txPk
attr title "packets transmitted, vector(packetBytes)"
251	53310 315 106 2290 0.00001157 74.00003727 12 64 122 826 59940
vector 239  LispIariaFunc.Core.eth[2].mac  txPk:vector(packetBytes)  ETV
attr interpolationmode none
attr source txPk
attr title "packets transmitted, vector(packetBytes)"
239	51473 239 107 1848 0.00001157 61.000031729997 9 64 64 576 36864
vector 263  LispIariaFunc.Core.eth[4].mac  txPk:vector(packetBytes)  ETV
attr interpolationmode none
attr source txPk
attr title "packets transmitted, vector(packetBytes)"
263	55603 265 108 2066 0.00001157 72.00003727 10 64 122 698 51748
vector 11  LispIariaFunc.xTR_A1.eth[0].mac  rxPkOk:vector(packetBytes)  ETV
attr interpolationmode none
attr source rxPkOk
attr title "packets received OK, vector(packetBytes)"
11	30321 279 109 2355 0.00001162 74.00009106 11 64 122 762 55844
vector 12  LispIariaFunc.xTR_A1.eth[0].mac  passedUpPk:vector(packetBytes)  ETV
attr interpolationmode none
attr source packetSentToUpper
attr title "packets passed to higher layer, vector(packetBytes)"
12	30600 279 109 2355 0.00001162 74.00009106 11 64 122 762 55844
vector 67  LispIariaFunc.xTR_B1.eth[0].mac  rxPkOk:vector(packetBytes)  ETV
attr interpolationmode none
attr source rxPkOk
attr title "packets received OK, vector(packetBytes)"
67	36148 302 110 2291 0.00001162 74.00003732 12 64 122 826 59940
vector 68  LispIariaFunc.xTR_B1.eth[0].mac  passedUpPk:vector(packetBytes)  ETV
attr interpolationmode none
attr source packetSentToUpper
attr title "packets passed to higher layer, vector(packetBytes)"
68	36450 302 110 2291 0.00001162 74.00003732 12 64 122 826 59940
vector 286  LispIariaFunc.xTR_A2.eth[0].mac  rxPkOk:vector(packetBytes)  ETV
attr interpolationmode none
attr source rxPkOk
attr title "packets received OK, vector(packetBytes)"
286	58551 239 111 1852 0.00001162 61.000031779997 9 64 64 576 36864
vector 287  LispIariaFunc.xTR_A2.eth[0].mac  passedUpPk:vector(packetBytes)  ETV
attr interpolationmode none
attr source packetSentToUpper
attr title "packets passed to higher layer, vector(packetBytes)"
287	58790 239 111 1852 0.00001162 61.000031779997 9 64 64 576 36864
vector 320  LispIariaFunc.xTR_B2.eth[0].mac  rxPkOk:vector(packetBytes)  ETV
attr interpolationmode none
attr source rxPkOk
attr title "packets received OK, vector(packetBytes)"
320	62114 265 112 2067 0.00001162 72.00003732 10 64 122 698 51748
vector 321  LispIariaFunc.xTR_B2.eth[0].mac  passedUpPk:vector(packetBytes)  ETV
attr interpolationmode none
attr source packetSentToUpper
attr title "packets passed to higher layer, vector(packetBytes)"
321	62379 265 112 2067 0.00001162 72.00003732 10 64 122 698 51748
vector 20  LispIariaFunc.xTR_A1.eth[0].encap  decapPk:vector(packetBytes)  ETV
attr interpolationmode none
attr source decapPk
attr title "packets decapsulated, vector(packetBytes)"
20	31691 279 113 2356 0.00001162 74.00009106 11 28 104 384 18656
vector 76  LispIariaFunc.xTR_B1.eth[0].encap  decapPk:vector(packetBytes)  ETV
attr interpolationmode none
attr source decapPk
attr title "packets decapsulated, vector(packetBytes)"
76	37512 302 114 2292 0.00001162 74.00003732 12 28 104 412 19440
vector 295  LispIariaFunc.xTR_A2.eth[0].encap  decapPk:vector(packetBytes)  ETV
attr interpolationmode none
attr source decapPk
attr title "packets decapsulated, vector(packetBytes)"
295	59673 239 115 1856 0.00001162 61.000031779997 9 28 28 252 7056
vector 329  LispIariaFunc.xTR_B2.eth[0].encap  decapPk:vector(packetBytes)  ETV
attr interpolationmode none
attr source decapPk
attr title "packets decapsulated, vector(packetBytes)"
329	63286 265 116 2068 0.00001162 72.00003732 10 28 104 356 17872
vector 276  LispIariaFunc.xTR_A2.UDP  rcvdPk:vector(packetBytes)  ETV
attr interpolationmode none
attr source rcvdPk
attr title "packets received, vector(packetBytes)"
276	57685 208 217 1868 0.00002324 61.000031779997 8 8 8 64 512
vector 277  LispIariaFunc.xTR_A2.UDP  passedUpPk:vector(count)  ETV
attr interpolationmode none
attr title "packets passed up, vector(count)"
277	57893 208 217 1868 0.00002324 61.000031779997 8 1 8 36 204
vector 310  LispIariaFunc.xTR_B2.UDP  rcvdPk:vector(packetBytes)  ETV
attr interpolationmode none
attr source rcvdPk
attr title "packets received, vector(packetBytes)"
310	61152 233 218 2071 0.00002324 72.00003732 9 8 84 148 7568
vector 311  LispIariaFunc.xTR_B2.UDP  passedUpPk:vector(count)  ETV
attr interpolationmode none
attr title "packets passed up, vector(count)"
311	61385 232 218 2071 0.00002324 72.00003732 9 1 9 45 285
vector 1  LispIariaFunc.xTR_A1.UDP  rcvdPk:vector(packetBytes)  ETV
attr interpolationmode none
attr source rcvdPk
attr title "packets received, vector(packetBytes)"
1	29346 237 219 2359 0.00002324 74.00009106 10 8 84 156 7632
vector 2  LispIariaFunc.xTR_A1.UDP  passedUpPk:vector(count)  ETV
attr interpolationmode none
attr title "packets passed up, vector(count)"
2	29583 237 219 2359 0.00002324 74.00009106 10 1 10 55 385
vector 57  LispIariaFunc.xTR_B1.UDP  rcvdPk:vector(packetBytes)  ETV
attr interpolationmode none
attr source rcvdPk
attr title "packets received, vector(packetBytes)"
57	35105 269 220 2295 0.00002324 74.00003732 11 8 84 164 7696
vector 58  LispIariaFunc.xTR_B1.UDP  passedUpPk:vector(count)  ETV
attr interpolationmode none
attr title "packets passed up, vector(count)"
58	35374 270 220 2295 0.00002324 74.00003732 11 1 11 66 506
vector 284  LispIariaFunc.xTR_A2.networkLayer6.neighbourDiscovery  startDAD:vector  ETV
attr title "DAD started, vector"
284	58125 52 493 493 0.081796888355 0.081796888355 2 1 1 2 2
vector 306  LispIariaFunc.xTR_A2.eth[1].encap  encapPk:vector(packetBytes)  ETV
attr interpolationmode none
attr source encapPk
attr title "packets encapsulated, vector(packetBytes)"
306	60626 110 499 1166 0.081796888355 10.022920198132 4 40 40 160 6400
vector 302  LispIariaFunc.xTR_A2.eth[1].mac  rxPkFromHL:vector(packetBytes)  ETV
attr interpolationmode none
attr source rxPkFromHL
attr title "packet bytes from higher layer, vector(packetBytes)"
302	60516 110 501 1167 0.081796888355 10.022920198132 4 64 64 256 16384
vector 297  LispIariaFunc.xTR_A2.eth[1].mac  txPk:vector(packetBytes)  ETV
attr interpolationmode none
attr source txPk
attr title "packets transmitted, vector(packetBytes)"
297	59912 110 504 1169 0.081802648355 10.022925958132 4 64 64 256 16384
vector 105  LispIariaFunc.S1.eth[1].mac  rxPkOk:vector(packetBytes)  ETV
attr interpolationmode none
attr source rxPkOk
attr title "packets received OK, vector(packetBytes)"
105	40425 110 506 1170 0.081802698355 10.022926008132 4 64 64 256 16384
vector 106  LispIariaFunc.S1.eth[1].mac  passedUpPk:vector(packetBytes)  ETV
attr interpolationmode none
attr source packetSentToUpper
attr title "packets passed to higher layer, vector(packetBytes)"
106	40535 110 506 1170 0.081802698355 10.022926008132 4 64 64 256 16384
vector 343  LispIariaFunc.S1.relayUnit  "buffer level"  ETV
343	64847 993 508 2394 0.081802698355 76.00000821 38 0 94 1366 101524
vector 98  LispIariaFunc.S1.eth[0].mac  rxPkFromHL:vector(packetBytes)  ETV
attr interpolationmode none
attr source rxPkFromHL
attr title "packet bytes from higher layer, vector(packetBytes)"
98	39845 333 511 2395 0.081802698355 76.00000821 13 64 94 952 72208
vector 120  LispIariaFunc.S1.eth[2].mac  rxPkFromHL:vector(packetBytes)  ETV
attr interpolationmode none
attr source rxPkFromHL
attr title "packet bytes from higher layer, vector(packetBytes)"
120	41634 270 512 2372 0.081802698355 74.00009927 10 64 94 670 45700
vector 93  LispIariaFunc.S1.eth[0].mac  txPk:vector(packetBytes)  ETV
attr interpolationmode none
attr source txPk
attr title "packets transmitted, vector(packetBytes)"
93	39204 333 516 2398 0.081808458355 76.00001637 13 64 94 952 72208
vector 115  LispIariaFunc.S1.eth[2].mac  txPk:vector(packetBytes)  ETV
attr interpolationmode none
attr source txPk
attr title "packets transmitted, vector(packetBytes)"
115	40891 271 517 2375 0.081808458355 74.00010743 10 64 94 670 45700
vector 23  LispIariaFunc.xTR_A1.eth[1].mac  rxPkOk:vector(packetBytes)  ETV
attr interpolationmode none
attr source rxPkOk
attr title "packets received OK, vector(packetBytes)"
23	32124 333 518 2399 0.081808508355 76.00001642 13 64 94 952 72208
vector 24  LispIariaFunc.xTR_A1.eth[1].mac  passedUpPk:vector(packetBytes)  ETV
attr interpolationmode none
attr source packetSentToUpper
attr title "packets passed to higher layer, vector(packetBytes)"
24	32457 333 518 2399 0.081808508355 76.00001642 13 64 94 952 72208
vector 173  LispIariaFunc.HostA.eth[0].mac  rxPkOk:vector(packetBytes)  ETV
attr interpolationmode none
attr source rxPkOk
attr title "packets received OK, vector(packetBytes)"
173	45234 271 519 2376 0.081808508355 74.00010748 10 64 94 670 45700
vector 174  LispIariaFunc.HostA.eth[0].mac  passedUpPk:vector(packetBytes)  ETV
attr interpolationmode none
attr source packetSentToUpper
attr title "packets passed to higher layer, vector(packetBytes)"
174	45505 271 519 2376 0.081808508355 74.00010748 10 64 94 670 45700
vector 32  LispIariaFunc.xTR_A1.eth[1].encap  decapPk:vector(packetBytes)  ETV
attr interpolationmode none
attr source decapPk
attr title "packets decapsulated, vector(packetBytes)"
32	33098 333 520 2400 0.081808508355 76.00001642 13 28 76 652 36688
vector 182  LispIariaFunc.HostA.eth[0].encap  decapPk:vector(packetBytes)  ETV
attr interpolationmode none
attr source decapPk
attr title "packets decapsulated, vector(packetBytes)"
182	46176 271 521 2377 0.081808508355 74.00010748 10 28 76 424 19360
vector 43  LispIariaFunc.MRMS.networkLayer6.neighbourDiscovery  startDAD:vector  ETV
attr title "DAD started, vector"
43	33779 25 528 528 0.089260381576 0.089260381576 1 1 1 1 1
vector 53  LispIariaFunc.MRMS.eth[0].encap  encapPk:vector(packetBytes)  ETV
attr interpolationmode none
attr source encapPk
attr title "packets encapsulated, vector(packetBytes)"
53	34518 177 531 2230 0.089260381576 72.00012986 7 28 40 244 8752
vector 49  LispIariaFunc.MRMS.eth[0].mac  rxPkFromHL:vector(packetBytes)  ETV
attr interpolationmode none
attr source rxPkFromHL
attr title "packet bytes from higher layer, vector(packetBytes)"
49	34341 177 532 2231 0.089260381576 72.00012986 7 64 64 448 28672
vector 44  LispIariaFunc.MRMS.eth[0].mac  txPk:vector(packetBytes)  ETV
attr interpolationmode none
attr source txPk
attr title "packets transmitted, vector(packetBytes)"
44	33804 177 533 2233 0.089266141576 72.00013562 7 64 64 448 28672
vector 216  LispIariaFunc.Core.eth[0].mac  rxPkOk:vector(packetBytes)  ETV
attr interpolationmode none
attr source rxPkOk
attr title "packets received OK, vector(packetBytes)"
216	48353 184 534 2234 0.089266191576 72.00013567 7 64 64 448 28672
vector 217  LispIariaFunc.Core.eth[0].mac  passedUpPk:vector(packetBytes)  ETV
attr interpolationmode none
attr source packetSentToUpper
attr title "packets passed to higher layer, vector(packetBytes)"
217	48537 184 534 2234 0.089266191576 72.00013567 7 64 64 448 28672
vector 225  LispIariaFunc.Core.eth[0].encap  decapPk:vector(packetBytes)  ETV
attr interpolationmode none
attr source decapPk
attr title "packets decapsulated, vector(packetBytes)"
225	49071 184 535 2235 0.089266191576 72.00013567 7 28 40 244 8752
vector 318  LispIariaFunc.xTR_B2.networkLayer6.neighbourDiscovery  startDAD:vector  ETV
attr title "DAD started, vector"
318	61689 52 538 538 0.115032456396 0.115032456396 2 1 1 2 2
vector 340  LispIariaFunc.xTR_B2.eth[1].encap  encapPk:vector(packetBytes)  ETV
attr interpolationmode none
attr source encapPk
attr title "packets encapsulated, vector(packetBytes)"
340	64415 161 544 2120 0.115032456396 72.00006056 6 28 76 264 12960
vector 336  LispIariaFunc.xTR_B2.eth[1].mac  rxPkFromHL:vector(packetBytes)  ETV
attr interpolationmode none
attr source rxPkFromHL
attr title "packet bytes from higher layer, vector(packetBytes)"
336	64254 161 546 2121 0.115032456396 72.00006056 6 64 94 414 29316
vector 331  LispIariaFunc.xTR_B2.eth[1].mac  txPk:vector(packetBytes)  ETV
attr interpolationmode none
attr source txPk
attr title "packets transmitted, vector(packetBytes)"
331	63551 161 549 2124 0.115038216396 72.00006872 6 64 94 414 29316
vector 141  LispIariaFunc.S2.eth[1].mac  rxPkOk:vector(packetBytes)  ETV
attr interpolationmode none
attr source rxPkOk
attr title "packets received OK, vector(packetBytes)"
141	43142 161 551 2125 0.115038266396 72.00006877 6 64 94 414 29316
vector 142  LispIariaFunc.S2.eth[1].mac  passedUpPk:vector(packetBytes)  ETV
attr interpolationmode none
attr source packetSentToUpper
attr title "packets passed to higher layer, vector(packetBytes)"
142	43303 161 551 2125 0.115038266396 72.00006877 6 64 94 414 29316
vector 344  LispIariaFunc.S2.relayUnit  "buffer level"  ETV
344	65840 1046 553 2327 0.115038266396 74.00006195 40 0 94 1400 100880
vector 134  LispIariaFunc.S2.eth[0].mac  rxPkFromHL:vector(packetBytes)  ETV
attr interpolationmode none
attr source rxPkFromHL
attr title "packet bytes from higher layer, vector(packetBytes)"
134	42548 322 556 2328 0.115038266396 74.00006195 12 64 94 828 58632
vector 156  LispIariaFunc.S2.eth[2].mac  rxPkFromHL:vector(packetBytes)  ETV
attr interpolationmode none
attr source rxPkFromHL
attr title "packet bytes from higher layer, vector(packetBytes)"
156	44480 322 557 2308 0.115038266396 74.00004553 12 64 94 828 58632
vector 129  LispIariaFunc.S2.eth[0].mac  txPk:vector(packetBytes)  ETV
attr interpolationmode none
attr source txPk
attr title "packets transmitted, vector(packetBytes)"
129	41904 322 561 2331 0.115044026396 74.00007011 12 64 94 828 58632
vector 151  LispIariaFunc.S2.eth[2].mac  txPk:vector(packetBytes)  ETV
attr interpolationmode none
attr source txPk
attr title "packets transmitted, vector(packetBytes)"
151	43736 322 562 2311 0.115044026396 74.00005369 12 64 94 828 58632
vector 79  LispIariaFunc.xTR_B1.eth[1].mac  rxPkOk:vector(packetBytes)  ETV
attr interpolationmode none
attr source rxPkOk
attr title "packets received OK, vector(packetBytes)"
79	37969 309 563 2332 0.115044076396 74.00007016 12 64 94 828 58632
vector 80  LispIariaFunc.xTR_B1.eth[1].mac  passedUpPk:vector(packetBytes)  ETV
attr interpolationmode none
attr source packetSentToUpper
attr title "packets passed to higher layer, vector(packetBytes)"
80	38278 309 563 2332 0.115044076396 74.00007016 12 64 94 828 58632
vector 195  LispIariaFunc.HostB.eth[0].mac  rxPkOk:vector(packetBytes)  ETV
attr interpolationmode none
attr source rxPkOk
attr title "packets received OK, vector(packetBytes)"
195	46730 322 564 2312 0.115044076396 74.00005374 12 64 94 828 58632
vector 196  LispIariaFunc.HostB.eth[0].mac  passedUpPk:vector(packetBytes)  ETV
attr interpolationmode none
attr source packetSentToUpper
attr title "packets passed to higher layer, vector(packetBytes)"
196	47052 322 564 2312 0.115044076396 74.00005374 12 64 94 828 58632
vector 88  LispIariaFunc.xTR_B1.eth[1].encap  decapPk:vector(packetBytes)  ETV
attr interpolationmode none
attr source decapPk
attr title "packets decapsulated, vector(packetBytes)"
88	38895 309 565 2333 0.115044076396 74.00007016 12 28 76 528 25920
vector 204  LispIariaFunc.HostB.eth[0].encap  decapPk:vector(packetBytes)  ETV
attr interpolationmode none
attr source decapPk
attr title "packets decapsulated, vector(packetBytes)"
204	47796 322 566 2313 0.115044076396 74.00005374 12 28 76 528 25920
vector 9  LispIariaFunc.xTR_A1.networkLayer6.neighbourDiscovery  startDAD:vector  ETV
attr title "DAD started, vector"
9	29840 48 573 573 0.131276162993 0.131276162993 2 1 1 2 2
vector 31  LispIariaFunc.xTR_A1.eth[1].encap  encapPk:vector(packetBytes)  ETV
attr interpolationmode none
attr source encapPk
attr title "packets encapsulated, vector(packetBytes)"
31	32944 154 579 2364 0.131276162993 74.00009106 6 28 76 264 12960
vector 27  LispIariaFunc.xTR_A1.eth[1].mac  rxPkFromHL:vector(packetBytes)  ETV
attr interpolationmode none
attr source rxPkFromHL
attr title "packet bytes from higher layer, vector(packetBytes)"
27	32790 154 581 2365 0.131276162993 74.00009106 6 64 94 414 29316
vector 22  LispIariaFunc.xTR_A1.eth[1].mac  txPk:vector(packetBytes)  ETV
attr interpolationmode none
attr source txPk
attr title "packets transmitted, vector(packetBytes)"
22	31970 154 584 2368 0.131281922993 74.00009922 6 64 94 414 29316
vector 94  LispIariaFunc.S1.eth[0].mac  rxPkOk:vector(packetBytes)  ETV
attr interpolationmode none
attr source rxPkOk
attr title "packets received OK, vector(packetBytes)"
94	39537 154 586 2369 0.131281972993 74.00009927 6 64 94 414 29316
vector 95  LispIariaFunc.S1.eth[0].mac  passedUpPk:vector(packetBytes)  ETV
attr interpolationmode none
attr source packetSentToUpper
attr title "packets passed to higher layer, vector(packetBytes)"
95	39691 154 586 2369 0.131281972993 74.00009927 6 64 94 414 29316
vector 109  LispIariaFunc.S1.eth[1].mac  rxPkFromHL:vector(packetBytes)  ETV
attr interpolationmode none
attr source rxPkFromHL
attr title "packet bytes from higher layer, vector(packetBytes)"
109	40645 246 591 1901 0.131281972993 70.00000581 9 64 64 576 36864
vector 104  LispIariaFunc.S1.eth[1].mac  txPk:vector(packetBytes)  ETV
attr interpolationmode none
attr source txPk
attr title "packets transmitted, vector(packetBytes)"
104	40178 247 596 1905 0.131287732993 70.00001157 9 64 64 576 36864
vector 298  LispIariaFunc.xTR_A2.eth[1].mac  rxPkOk:vector(packetBytes)  ETV
attr interpolationmode none
attr source rxPkOk
attr title "packets received OK, vector(packetBytes)"
298	60022 247 598 1907 0.131287782993 70.00001162 9 64 64 576 36864
vector 299  LispIariaFunc.xTR_A2.eth[1].mac  passedUpPk:vector(packetBytes)  ETV
attr interpolationmode none
attr source packetSentToUpper
attr title "packets passed to higher layer, vector(packetBytes)"
299	60269 247 598 1907 0.131287782993 70.00001162 9 64 64 576 36864
vector 307  LispIariaFunc.xTR_A2.eth[1].encap  decapPk:vector(packetBytes)  ETV
attr interpolationmode none
attr source decapPk
attr title "packets decapsulated, vector(packetBytes)"
307	60736 247 600 1909 0.131287782993 70.00001162 9 28 40 348 13584
vector 65  LispIariaFunc.xTR_B1.networkLayer6.neighbourDiscovery  startDAD:vector  ETV
attr title "DAD started, vector"
65	35666 50 609 609 0.267531900526 0.267531900526 2 1 1 2 2
vector 87  LispIariaFunc.xTR_B1.eth[1].encap  encapPk:vector(packetBytes)  ETV
attr interpolationmode none
attr source encapPk
attr title "packets encapsulated, vector(packetBytes)"
87	38741 154 615 2300 0.267531900526 74.00003732 6 28 76 264 12960
vector 83  LispIariaFunc.xTR_B1.eth[1].mac  rxPkFromHL:vector(packetBytes)  ETV
attr interpolationmode none
attr source rxPkFromHL
attr title "packet bytes from higher layer, vector(packetBytes)"
83	38587 154 617 2301 0.267531900526 74.00003732 6 64 94 414 29316
vector 78  LispIariaFunc.xTR_B1.eth[1].mac  txPk:vector(packetBytes)  ETV
attr interpolationmode none
attr source txPk
attr title "packets transmitted, vector(packetBytes)"
78	37814 155 620 2304 0.267537660526 74.00004548 6 64 94 414 29316
vector 130  LispIariaFunc.S2.eth[0].mac  rxPkOk:vector(packetBytes)  ETV
attr interpolationmode none
attr source rxPkOk
attr title "packets received OK, vector(packetBytes)"