version 2
run General-0-20120611-12:01:05-6852
attr configname General
attr datetime 20120611-12:01:05
attr experiment General
attr inifile omnetpp.ini
attr iterationvars ""
attr iterationvars2 $repetition=0
attr measurement ""
attr network SimpleTest
attr processid 6852
attr repetition 0
attr replication #0
attr resultdir results
attr runnumber 0
attr seedset 0

vector 36  SimpleTest.H1.eth[0].mac  framesSent  ETV
vector 38  SimpleTest.H1.eth[0].mac  bytesSent  ETV
vector 52  SimpleTest.H2.eth[0].mac  framesSent  ETV
vector 54  SimpleTest.H2.eth[0].mac  bytesSent  ETV
vector 5  SimpleTest.R1.eth[0].mac  framesReceivedOK  ETV
vector 7  SimpleTest.R1.eth[0].mac  bytesReceivedOK  ETV
vector 11  SimpleTest.R1.eth[0].mac  framesPassedToHL  ETV
vector 21  SimpleTest.R2.eth[0].mac  framesReceivedOK  ETV
vector 23  SimpleTest.R2.eth[0].mac  bytesReceivedOK  ETV
vector 27  SimpleTest.R2.eth[0].mac  framesPassedToHL  ETV
vector 4  SimpleTest.R1.eth[0].mac  framesSent  ETV
vector 6  SimpleTest.R1.eth[0].mac  bytesSent  ETV
vector 20  SimpleTest.R2.eth[0].mac  framesSent  ETV
vector 22  SimpleTest.R2.eth[0].mac  bytesSent  ETV
vector 37  SimpleTest.H1.eth[0].mac  framesReceivedOK  ETV
vector 39  SimpleTest.H1.eth[0].mac  bytesReceivedOK  ETV
vector 43  SimpleTest.H1.eth[0].mac  framesPassedToHL  ETV
vector 53  SimpleTest.H2.eth[0].mac  framesReceivedOK  ETV
vector 55  SimpleTest.H2.eth[0].mac  bytesReceivedOK  ETV
vector 59  SimpleTest.H2.eth[0].mac  framesPassedToHL  ETV
vector 34  SimpleTest.H1.eth[0].queue  "queue length"  ETV
vector 50  SimpleTest.H2.eth[0].queue  "queue length"  ETV
4	67	0.100013539998	1
5	45	0.100006819999	1
5	101	0.100027019997	2
5	117	0.100033739996	3
5	165	0.200013379999	4
5	181	0.200020099998	5
5	229	0.300013379999	6
5	245	0.300020099998	7
5	293	0.400013379999	8
5	309	0.400020099998	9
6	67	0.100013539998	64
7	45	0.100006819999	64
7	101	0.100027019997	210
7	117	0.100033739996	274
7	165	0.200013379999	420
7	181	0.200020099998	484
7	229	0.300013379999	630
7	245	0.300020099998	694
7	293	0.400013379999	840
7	309	0.400020099998	904
11	45	0.100006819999	1
11	101	0.100027019997	2
11	117	0.100033739996	3
11	165	0.200013379999	4
11	181	0.200020099998	5
11	229	0.300013379999	6
11	245	0.300020099998	7
11	293	0.400013379999	8
11	309	0.400020099998	9
20	68	0.100013539998	1
21	46	0.100006819999	1
21	102	0.100027019997	2
21	118	0.100033739996	3
21	166	0.200013379999	4
21	182	0.200020099998	5
21	230	0.300013379999	6
21	246	0.300020099998	7
21	294	0.400013379999	8
21	310	0.400020099998	9
22	68	0.100013539998	64
23	46	0.100006819999	64
23	102	0.100027019997	210
23	118	0.100033739996	274
23	166	0.200013379999	420
23	182	0.200020099998	484
23	230	0.300013379999	630
23	246	0.300020099998	694
23	294	0.400013379999	840
23	310	0.400020099998	904
27	46	0.100006819999	1
27	102	0.100027019997	2
27	118	0.100033739996	3
27	166	0.200013379999	4
27	182	0.200020099998	5
27	230	0.300013379999	6
27	246	0.300020099998	7
27	294	0.400013379999	8
27	310	0.400020099998	9
34	84	0.100013639998	1
34	95	0.100026919997	0
34	148	0.2	1
34	159	0.200013279999	0
34	212	0.3	1
34	223	0.300013279999	0
34	276	0.4	1
34	287	0.400013279999	0
36	43	0.100006719999	1
36	95	0.100026919997	2
36	115	0.100033639996	3
36	159	0.200013279999	4
36	179	0.200019999998	5
36	223	0.300013279999	6
36	243	0.300019999998	7
36	287	0.400013279999	8
36	307	0.400019999998	9
37	69	0.100013639998	1
38	43	0.100006719999	64
38	95	0.100026919997	210
38	115	0.100033639996	274
38	159	0.200013279999	420
38	179	0.200019999998	484
38	223	0.300013279999	630
38	243	0.300019999998	694
38	287	0.400013279999	840
38	307	0.400019999998	904
39	69	0.100013639998	64
43	69	0.100013639998	1
50	86	0.100013639998	1
50	96	0.100026919997	0
50	150	0.2	1
50	160	0.200013279999	0
50	214	0.3	1
50	224	0.300013279999	0
50	278	0.4	1
50	288	0.400013279999	0
52	44	0.100006719999	1
52	96	0.100026919997	2
52	116	0.100033639996	3
52	160	0.200013279999	4
52	180	0.200019999998	5
52	224	0.300013279999	6
52	244	0.300019999998	7
52	288	0.400013279999	8
52	308	0.400019999998	9
53	70	0.100013639998	1
54	44	0.100006719999	64
54	96	0.100026919997	210
54	116	0.100033639996	274
54	160	0.200013279999	420
54	180	0.200019999998	484
54	224	0.300013279999	630
54	244	0.300019999998	694
54	288	0.400013279999	840
54	308	0.400019999998	904
55	70	0.100013639998	64
59	70	0.100013639998	1
