version 2
run General-0-20120720-02:44:50-7988
attr configname General
attr datetime 20120720-02:44:50
attr experiment General
attr inifile omnetpp.ini
attr iterationvars ""
attr iterationvars2 $repetition=0
attr measurement ""
attr network inet.examples.ansaExamples.ISIS.ISIStest1
attr processid 7988
attr repetition 0
attr replication #0
attr resultdir results
attr runnumber 0
attr seedset 0

vector 2  ISIStest1.router1.eth[0].mac  framesSent  ETV
vector 4  ISIStest1.router1.eth[0].mac  bytesSent  ETV
vector 16  ISIStest1.router2.eth[0].mac  framesSent  ETV
vector 18  ISIStest1.router2.eth[0].mac  bytesSent  ETV
vector 58  ISIStest1.etherSwitch.mac[0]  framesReceivedOK  ETV
vector 60  ISIStest1.etherSwitch.mac[0]  bytesReceivedOK  ETV
vector 64  ISIStest1.etherSwitch.mac[0]  framesPassedToHL  ETV
vector 70  ISIStest1.etherSwitch.mac[1]  framesReceivedOK  ETV
vector 72  ISIStest1.etherSwitch.mac[1]  bytesReceivedOK  ETV
vector 76  ISIStest1.etherSwitch.mac[1]  framesPassedToHL  ETV
vector 56  ISIStest1.etherSwitch.relayUnit  "buffer level"  ETV
vector 69  ISIStest1.etherSwitch.mac[1]  framesSent  ETV
vector 71  ISIStest1.etherSwitch.mac[1]  bytesSent  ETV
vector 81  ISIStest1.etherSwitch.mac[2]  framesSent  ETV
vector 83  ISIStest1.etherSwitch.mac[2]  bytesSent  ETV
vector 57  ISIStest1.etherSwitch.mac[0]  framesSent  ETV
vector 59  ISIStest1.etherSwitch.mac[0]  bytesSent  ETV
vector 17  ISIStest1.router2.eth[0].mac  framesReceivedOK  ETV
vector 19  ISIStest1.router2.eth[0].mac  bytesReceivedOK  ETV
vector 23  ISIStest1.router2.eth[0].mac  framesPassedToHL  ETV
vector 45  ISIStest1.router3.eth[0].mac  framesReceivedOK  ETV
vector 47  ISIStest1.router3.eth[0].mac  bytesReceivedOK  ETV
vector 51  ISIStest1.router3.eth[0].mac  framesPassedToHL  ETV
vector 3  ISIStest1.router1.eth[0].mac  framesReceivedOK  ETV
vector 5  ISIStest1.router1.eth[0].mac  bytesReceivedOK  ETV
vector 9  ISIStest1.router1.eth[0].mac  framesPassedToHL  ETV
vector 0  ISIStest1.router1.eth[0].queue  "queue length"  ETV
0	325	15	1
0	335	15.000006719999	0
2	43	1.000006719999	1
2	101	4.330006719999	2
2	159	7.660006719999	3
2	217	10.990006719999	4
2	275	14.320006719999	5
2	335	15.000006719999	6
2	357	15.000013439998	7
2	417	17.650006719999	8
2	475	20.980006719999	9
2	533	24.310006719999	10
2	585	25.000006719999	11
2	623	27.640006719999	12
2	681	30.970006719999	13
2	739	34.300006719999	14
2	791	35.000006719999	15
2	829	37.630006719999	16
2	887	40.960006719999	17
2	945	44.290006719999	18
2	997	45.000006719999	19
2	1035	47.620006719999	20
2	1093	50.950006719999	21
2	1151	54.280006719999	22
2	1203	55.000006719999	23
2	1241	57.610006719999	24
2	1299	60.940006719999	25
2	1357	64.270006719999	26
2	1409	65.000006719999	27
2	1447	67.600006719999	28
2	1505	70.930006719999	29
2	1563	74.260006719999	30
2	1615	75.000006719999	31
2	1653	77.590006719999	32
2	1711	80.920006719999	33
2	1769	84.250006719999	34
2	1821	85.000006719999	35
2	1859	87.580006719999	36
2	1917	90.910006719999	37
2	1975	94.240006719999	38
2	2027	95.000006719999	39
2	2065	97.570006719999	40
2	2123	100.900006719999	41
2	2181	104.230006719999	42
2	2233	105.000006719999	43
2	2271	107.560006719999	44
2	2329	110.890006719999	45
2	2387	114.220006719999	46
2	2439	115.000006719999	47
2	2477	117.550006719999	48
2	2535	120.880006719999	49
2	2593	124.210006719999	50
2	2645	125.000006719999	51
2	2683	127.540006719999	52
2	2741	130.870006719999	53
2	2799	134.200006719999	54
2	2851	135.000006719999	55
2	2889	137.530006719999	56
2	2947	140.860006719999	57
2	3005	144.190006719999	58
2	3057	145.000006719999	59
2	3095	147.520006719999	60
2	3153	150.850006719999	61
2	3211	154.180006719999	62
2	3263	155.000006719999	63
2	3301	157.510006719999	64
2	3359	160.840006719999	65
2	3417	164.170006719999	66
2	3469	165.000006719999	67
2	3507	167.500006719999	68
2	3565	170.830006719999	69
2	3623	174.160006719999	70
2	3675	175.000006719999	71
2	3713	177.490006719999	72
2	3771	180.820006719999	73
2	3829	184.150006719999	74
2	3881	185.000006719999	75
2	3919	187.480006719999	76
3	66	1.000013639998	1
3	124	4.330013639998	2
3	182	7.660013639998	3
3	240	10.990013639998	4
3	298	14.320013639998	5
3	368	15.000013639998	6
3	440	17.650013639998	7
3	498	20.980013639998	8
3	556	24.310013639998	9
3	646	27.640013639998	10
3	704	30.970013639998	11
3	762	34.300013639998	12
3	852	37.630013639998	13
3	910	40.960013639998	14
3	968	44.290013639998	15
3	1058	47.620013639998	16
3	1116	50.950013639998	17
3	1174	54.280013639998	18
3	1264	57.610013639998	19
3	1322	60.940013639998	20
3	1380	64.270013639998	21
3	1470	67.600013639998	22
3	1528	70.930013639998	23
3	1586	74.260013639998	24
3	1676	77.590013639998	25
3	1734	80.920013639998	26
3	1792	84.250013639998	27
3	1882	87.580013639998	28
3	1940	90.910013639998	29
3	1998	94.240013639998	30
3	2088	97.570013639998	31
3	2146	100.900013639998	32
3	2204	104.230013639998	33
3	2294	107.560013639998	34
3	2352	110.890013639998	35
3	2410	114.220013639998	36
3	2500	117.550013639998	37
3	2558	120.880013639998	38
3	2616	124.210013639998	39
3	2706	127.540013639998	40
3	2764	130.870013639998	41
3	2822	134.200013639998	42
3	2912	137.530013639998	43
3	2970	140.860013639998	44
3	3028	144.190013639998	45
3	3118	147.520013639998	46
3	3176	150.850013639998	47
3	3234	154.180013639998	48
3	3324	157.510013639998	49
3	3382	160.840013639998	50
3	3440	164.170013639998	51
3	3530	167.500013639998	52
3	3588	170.830013639998	53
3	3646	174.160013639998	54
3	3736	177.490013639998	55
3	3794	180.820013639998	56
3	3852	184.150013639998	57
3	3942	187.480013639998	58
4	43	1.000006719999	64
4	101	4.330006719999	128
4	159	7.660006719999	192
4	217	10.990006719999	256
4	275	14.320006719999	320
4	335	15.000006719999	384
4	357	15.000013439998	448
4	417	17.650006719999	512
4	475	20.980006719999	576
4	533	24.310006719999	640
4	585	25.000006719999	704
4	623	27.640006719999	768
4	681	30.970006719999	832
4	739	34.300006719999	896
4	791	35.000006719999	960
4	829	37.630006719999	1024
4	887	40.960006719999	1088
4	945	44.290006719999	1152
4	997	45.000006719999	1216
4	1035	47.620006719999	1280
4	1093	50.950006719999	1344
4	1151	54.280006719999	1408
4	1203	55.000006719999	1472
4	1241	57.610006719999	1536
4	1299	60.940006719999	1600
4	1357	64.270006719999	1664
4	1409	65.000006719999	1728
4	1447	67.600006719999	1792
4	1505	70.930006719999	1856
4	1563	74.260006719999	1920
4	1615	75.000006719999	1984
4	1653	77.590006719999	2048
4	1711	80.920006719999	2112
4	1769	84.250006719999	2176
4	1821	85.000006719999	2240
4	1859	87.580006719999	2304
4	1917	90.910006719999	2368
4	1975	94.240006719999	2432
4	2027	95.000006719999	2496
4	2065	97.570006719999	2560
4	2123	100.900006719999	2624
4	2181	104.230006719999	2688
4	2233	105.000006719999	2752
4	2271	107.560006719999	2816
4	2329	110.890006719999	2880
4	2387	114.220006719999	2944
4	2439	115.000006719999	3008
4	2477	117.550006719999	3072
4	2535	120.880006719999	3136
4	2593	124.210006719999	3200
4	2645	125.000006719999	3264
4	2683	127.540006719999	3328
4	2741	130.870006719999	3392
4	2799	134.200006719999	3456
4	2851	135.000006719999	3520
4	2889	137.530006719999	3584
4	2947	140.860006719999	3648
4	3005	144.190006719999	3712
4	3057	145.000006719999	3776
4	3095	147.520006719999	3840
4	3153	150.850006719999	3904
4	3211	154.180006719999	3968
4	3263	155.000006719999	4032
4	3301	157.510006719999	4096
4	3359	160.840006719999	4160
4	3417	164.170006719999	4224
4	3469	165.000006719999	4288
4	3507	167.500006719999	4352
4	3565	170.830006719999	4416
4	3623	174.160006719999	4480
4	3675	175.000006719999	4544
4	3713	177.490006719999	4608
4	3771	180.820006719999	4672
4	3829	184.150006719999	4736
4	3881	185.000006719999	4800
4	3919	187.480006719999	4864
5	66	1.000013639998	64
5	124	4.330013639998	128
5	182	7.660013639998	192
5	240	10.990013639998	256
5	298	14.320013639998	320
5	368	15.000013639998	384
5	440	17.650013639998	448
5	498	20.980013639998	512
5	556	24.310013639998	576
5	646	27.640013639998	640
5	704	30.970013639998	704
5	762	34.300013639998	768
5	852	37.630013639998	832
5	910	40.960013639998	896
5	968	44.290013639998	960
5	1058	47.620013639998	1024
5	1116	50.950013639998	1088
5	1174	54.280013639998	1152
5	1264	57.610013639998	1216
5	1322	60.940013639998	1280
5	1380	64.270013639998	1344
5	1470	67.600013639998	1408
5	1528	70.930013639998	1472
5	1586	74.260013639998	1536
5	1676	77.590013639998	1600
5	1734	80.920013639998	1664
5	1792	84.250013639998	1728
5	1882	87.580013639998	1792
5	1940	90.910013639998	1856
5	1998	94.240013639998	1920
5	2088	97.570013639998	1984
5	2146	100.900013639998	2048
5	2204	104.230013639998	2112
5	2294	107.560013639998	2176
5	2352	110.890013639998	2240
5	2410	114.220013639998	2304
5	2500	117.550013639998	2368
5	2558	120.880013639998	2432
5	2616	124.210013639998	2496
5	2706	127.540013639998	2560
5	2764	130.870013639998	2624
5	2822	134.200013639998	2688
5	2912	137.530013639998	2752
5	2970	140.860013639998	2816
5	3028	144.190013639998	2880
5	3118	147.520013639998	2944
5	3176	150.850013639998	3008
5	3234	154.180013639998	3072
5	3324	157.510013639998	3136
5	3382	160.840013639998	3200
5	3440	164.170013639998	3264
5	3530	167.500013639998	3328
5	3588	170.830013639998	3392
5	3646	174.160013639998	3456
5	3736	177.490013639998	3520
5	3794	180.820013639998	3584
5	3852	184.150013639998	3648
5	3942	187.480013639998	3712
9	66	1.000013639998	1
9	124	4.330013639998	2
9	182	7.660013639998	3
9	240	10.990013639998	4
9	298	14.320013639998	5
9	368	15.000013639998	6
9	440	17.650013639998	7
9	498	20.980013639998	8
9	556	24.310013639998	9
9	646	27.640013639998	10
9	704	30.970013639998	11
9	762	34.300013639998	12
9	852	37.630013639998	13
9	910	40.960013639998	14
9	968	44.290013639998	15
9	1058	47.620013639998	16
9	1116	50.950013639998	17
9	1174	54.280013639998	18
9	1264	57.610013639998	19
9	1322	60.940013639998	20
9	1380	64.270013639998	21
9	1470	67.600013639998	22
9	1528	70.930013639998	23
9	1586	74.260013639998	24
9	1676	77.590013639998	25
9	1734	80.920013639998	26
9	1792	84.250013639998	27
9	1882	87.580013639998	28
9	1940	90.910013639998	29
9	1998	94.240013639998	30
9	2088	97.570013639998	31
9	2146	100.900013639998	32
9	2204	104.230013639998	33
9	2294	107.560013639998	34
9	2352	110.890013639998	35
9	2410	114.220013639998	36
9	2500	117.550013639998	37
9	2558	120.880013639998	38
9	2616	124.210013639998	39
9	2706	127.540013639998	40
9	2764	130.870013639998	41
9	2822	134.200013639998	42
9	2912	137.530013639998	43
9	2970	140.860013639998	44
9	3028	144.190013639998	45
9	3118	147.520013639998	46
9	3176	150.850013639998	47
9	3234	154.180013639998	48
9	3324	157.510013639998	49
9	3382	160.840013639998	50
9	3440	164.170013639998	51
9	3530	167.500013639998	52
9	3588	170.830013639998	53
9	3646	174.160013639998	54
9	3736	177.490013639998	55
9	3794	180.820013639998	56
9	3852	184.150013639998	57
9	3942	187.480013639998	58
16	44	1.000006719999	1
16	102	4.330006719999	2
16	160	7.660006719999	3
16	218	10.990006719999	4
16	276	14.320006719999	5
16	336	15.000006719999	6
16	418	17.650006719999	7
16	476	20.980006719999	8
16	534	24.310006719999	9
16	624	27.640006719999	10
16	682	30.970006719999	11
16	740	34.300006719999	12
16	830	37.630006719999	13
16	888	40.960006719999	14
16	946	44.290006719999	15
16	1036	47.620006719999	16
16	1094	50.950006719999	17
16	1152	54.280006719999	18
16	1242	57.610006719999	19
16	1300	60.940006719999	20
16	1358	64.270006719999	21
16	1448	67.600006719999	22
16	1506	70.930006719999	23
16	1564	74.260006719999	24
16	1654	77.590006719999	25
16	1712	80.920006719999	26
16	1770	84.250006719999	27
16	1860	87.580006719999	28
16	1918	90.910006719999	29
16	1976	94.240006719999	30
16	2066	97.570006719999	31
16	2124	100.900006719999	32
16	2182	104.230006719999	33
16	2272	107.560006719999	34
16	2330	110.890006719999	35
16	2388	114.220006719999	36
16	2478	117.550006719999	37
16	2536	120.880006719999	38
16	2594	124.210006719999	39
16	2684	127.540006719999	40
16	2742	130.870006719999	41
16	2800	134.200006719999	42
16	2890	137.530006719999	43
16	2948	140.860006719999	44
16	3006	144.190006719999	45
16	3096	147.520006719999	46
16	3154	150.850006719999	47
16	3212	154.180006719999	48
16	3302	157.510006719999	49
16	3360	160.840006719999	50
16	3418	164.170006719999	51
16	3508	167.500006719999	52
16	3566	170.830006719999	53
16	3624	174.160006719999	54
16	3714	177.490006719999	55
16	3772	180.820006719999	56
16	3830	184.150006719999	57
16	3920	187.480006719999	58
17	64	1.000013639998	1
17	122	4.330013639998	2
17	180	7.660013639998	3
17	238	10.990013639998	4
17	296	14.320013639998	5
17	366	15.000013639998	6
17	385	15.000020359997	7
17	438	17.650013639998	8
17	496	20.980013639998	9
17	554	24.310013639998	10
17	597	25.000013639998	11
17	644	27.640013639998	12
17	702	30.970013639998	13
17	760	34.300013639998	14
17	803	35.000013639998	15
17	850	37.630013639998	16
17	908	40.960013639998	17
17	966	44.290013639998	18
17	1009	45.000013639998	19
17	1056	47.620013639998	20
17	1114	50.950013639998	21
17	1172	54.280013639998	22
17	1215	55.000013639998	23
17	1262	57.610013639998	24
17	1320	60.940013639998	25
17	1378	64.270013639998	26
17	1421	65.000013639998	27
17	1468	67.600013639998	28
17	1526	70.930013639998	29
17	1584	74.260013639998	30
17	1627	75.000013639998	31
17	1674	77.590013639998	32
17	1732	80.920013639998	33
17	1790	84.250013639998	34
17	1833	85.000013639998	35
17	1880	87.580013639998	36
17	1938	90.910013639998	37
17	1996	94.240013639998	38
17	2039	95.000013639998	39
17	2086	97.570013639998	40
17	2144	100.900013639998	41
17	2202	104.230013639998	42
17	2245	105.000013639998	43
17	2292	107.560013639998	44
17	2350	110.890013639998	45
17	2408	114.220013639998	46
17	2451	115.000013639998	47
17	2498	117.550013639998	48
17	2556	120.880013639998	49
17	2614	124.210013639998	50
17	2657	125.000013639998	51
17	2704	127.540013639998	52
17	2762	130.870013639998	53
17	2820	134.200013639998	54
17	2863	135.000013639998	55
17	2910	137.530013639998	56
17	2968	140.860013639998	57
17	3026	144.190013639998	58
17	3069	145.000013639998	59
17	3116	147.520013639998	60
17	3174	150.850013639998	61
17	3232	154.180013639998	62
17	3275	155.000013639998	63
17	3322	157.510013639998	64
17	3380	160.840013639998	65
17	3438	164.170013639998	66
17	3481	165.000013639998	67
17	3528	167.500013639998	68
17	3586	170.830013639998	69
17	3644	174.160013639998	70
17	3687	175.000013639998	71
17	3734	177.490013639998	72
17	3792	180.820013639998	73
17	3850	184.150013639998	74
17	3893	185.000013639998	75
17	3940	187.480013639998	76
18	44	1.000006719999	64
18	102	4.330006719999	128
18	160	7.660006719999	192
18	218	10.990006719999	256
18	276	14.320006719999	320
18	336	15.000006719999	384
18	418	17.650006719999	448
18	476	20.980006719999	512
18	534	24.310006719999	576
18	624	27.640006719999	640
18	682	30.970006719999	704
18	740	34.300006719999	768
18	830	37.630006719999	832
18	888	40.960006719999	896
18	946	44.290006719999	960
18	1036	47.620006719999	1024
18	1094	50.950006719999	1088
18	1152	54.280006719999	1152
18	1242	57.610006719999	1216
18	1300	60.940006719999	1280
18	1358	64.270006719999	1344
18	1448	67.600006719999	1408
18	1506	70.930006719999	1472
18	1564	74.260006719999	1536
18	1654	77.590006719999	1600
18	1712	80.920006719999	1664
18	1770	84.250006719999	1728
18	1860	87.580006719999	1792
18	1918	90.910006719999	1856
18	1976	94.240006719999	1920
18	2066	97.570006719999	1984
18	2124	100.900006719999	2048
18	2182	104.230006719999	2112
18	2272	107.560006719999	2176
18	2330	110.890006719999	2240
18	2388	114.220006719999	2304
18	2478	117.550006719999	2368
18	2536	120.880006719999	2432
18	2594	124.210006719999	2496
18	2684	127.540006719999	2560
18	2742	130.870006719999	2624
18	2800	134.200006719999	2688
18	2890	137.530006719999	2752
18	2948	140.860006719999	2816
18	3006	144.190006719999	2880
18	3096	147.520006719999	2944
18	3154	150.850006719999	3008
18	3212	154.180006719999	3072
18	3302	157.510006719999	3136
18	3360	160.840006719999	3200
18	3418	164.170006719999	3264
18	3508	167.500006719999	3328
18	3566	170.830006719999	3392
18	3624	174.160006719999	3456
18	3714	177.490006719999	3520
18	3772	180.820006719999	3584
18	3830	184.150006719999	3648
18	3920	187.480006719999	3712
19	64	1.000013639998	64
19	122	4.330013639998	128
19	180	7.660013639998	192
19	238	10.990013639998	256
19	296	14.320013639998	320
19	366	15.000013639998	384
19	385	15.000020359997	448
19	438	17.650013639998	512
19	496	20.980013639998	576
19	554	24.310013639998	640
19	597	25.000013639998	704
19	644	27.640013639998	768
19	702	30.970013639998	832
19	760	34.300013639998	896
19	803	35.000013639998	960
19	850	37.630013639998	1024
19	908	40.960013639998	1088
19	966	44.290013639998	1152
19	1009	45.000013639998	1216
19	1056	47.620013639998	1280
19	1114	50.950013639998	1344
19	1172	54.280013639998	1408
19	1215	55.000013639998	1472
19	1262	57.610013639998	1536
19	1320	60.940013639998	1600
19	1378	64.270013639998	1664
19	1421	65.000013639998	1728
19	1468	67.600013639998	1792
19	1526	70.930013639998	1856
19	1584	74.260013639998	1920
19	1627	75.000013639998	1984
19	1674	77.590013639998	2048
19	1732	80.920013639998	2112
19	1790	84.250013639998	2176
19	1833	85.000013639998	2240
19	1880	87.580013639998	2304
19	1938	90.910013639998	2368
19	1996	94.240013639998	2432
19	2039	95.000013639998	2496
19	2086	97.570013639998	2560
19	2144	100.900013639998	2624
19	2202	104.230013639998	2688
19	2245	105.000013639998	2752
19	2292	107.560013639998	2816
19	2350	110.890013639998	2880
19	2408	114.220013639998	2944
19	2451	115.000013639998	3008
19	2498	117.550013639998	3072
19	2556	120.880013639998	3136
19	2614	124.210013639998	3200
19	2657	125.000013639998	3264
19	2704	127.540013639998	3328
19	2762	130.870013639998	3392
19	2820	134.200013639998	3456
19	2863	135.000013639998	3520
19	2910	137.530013639998	3584
19	2968	140.860013639998	3648
19	3026	144.190013639998	3712
19	3069	145.000013639998	3776
19	3116	147.520013639998	3840
19	3174	150.850013639998	3904
19	3232	154.180013639998	3968
19	3275	155.000013639998	4032
19	3322	157.510013639998	4096
19	3380	160.840013639998	4160
19	3438	164.170013639998	4224
19	3481	165.000013639998	4288
19	3528	167.500013639998	4352
19	3586	170.830013639998	4416
19	3644	174.160013639998	4480
19	3687	175.000013639998	4544
19	3734	177.490013639998	4608
19	3792	180.820013639998	4672
19	3850	184.150013639998	4736
19	3893	185.000013639998	4800
19	3940	187.480013639998	4864
23	64	1.000013639998	1
23	122	4.330013639998	2
23	180	7.660013639998	3
23	238	10.990013639998	4
23	296	14.320013639998	5
23	366	15.000013639998	6
23	385	15.000020359997	7
23	438	17.650013639998	8
23	496	20.980013639998	9
23	554	24.310013639998	10
23	597	25.000013639998	11
23	644	27.640013639998	12
23	702	30.970013639998	13
23	760	34.300013639998	14
23	803	35.000013639998	15
23	850	37.630013639998	16
23	908	40.960013639998	17
23	966	44.290013639998	18
23	1009	45.000013639998	19
23	1056	47.620013639998	20
23	1114	50.950013639998	21
23	1172	54.280013639998	22
23	1215	55.000013639998	23
23	1262	57.610013639998	24
23	1320	60.940013639998	25
23	1378	64.270013639998	26
23	1421	65.000013639998	27
23	1468	67.600013639998	28
23	1526	70.930013639998	29
23	1584	74.260013639998	30
23	1627	75.000013639998	31
23	1674	77.590013639998	32
23	1732	80.920013639998	33
23	1790	84.250013639998	34
23	1833	85.000013639998	35
23	1880	87.580013639998	36
23	1938	90.910013639998	37
23	1996	94.240013639998	38
23	2039	95.000013639998	39
23	2086	97.570013639998	40
23	2144	100.900013639998	41
23	2202	104.230013639998	42
23	2245	105.000013639998	43
23	2292	107.560013639998	44
23	2350	110.890013639998	45
23	2408	114.220013639998	46
23	2451	115.000013639998	47
23	2498	117.550013639998	48
23	2556	120.880013639998	49
23	2614	124.210013639998	50
23	2657	125.000013639998	51
23	2704	127.540013639998	52
23	2762	130.870013639998	53
23	2820	134.200013639998	54
23	2863	135.000013639998	55
23	2910	137.530013639998	56
23	2968	140.860013639998	57
23	3026	144.190013639998	58
23	3069	145.000013639998	59
23	3116	147.520013639998	60
23	3174	150.850013639998	61
23	3232	154.180013639998	62
23	3275	155.000013639998	63
23	3322	157.510013639998	64
23	3380	160.840013639998	65
23	3438	164.170013639998	66
23	3481	165.000013639998	67
23	3528	167.500013639998	68
23	3586	170.830013639998	69
23	3644	174.160013639998	70
23	3687	175.000013639998	71
23	3734	177.490013639998	72
23	3792	180.820013639998	73
23	3850	184.150013639998	74
23	3893	185.000013639998	75
23	3940	187.480013639998	76
45	65	1.000013639998	1
45	79	1.000020359997	2
45	123	4.330013639998	3
45	137	4.330020359997	4
45	181	7.660013639998	5
45	195	7.660020359997	6
45	239	10.990013639998	7
45	253	10.990020359997	8
45	297	14.320013639998	9
45	311	14.320020359997	10
45	367	15.000013639998	11
45	384	15.000020359997	12
45	395	15.000027079996	13
45	439	17.650013639998	14
45	453	17.650020359997	15
45	497	20.980013639998	16
45	511	20.980020359997	17
45	555	24.310013639998	18
45	569	24.310020359997	19
45	598	25.000013639998	20
45	645	27.640013639998	21
45	659	27.640020359997	22
45	703	30.970013639998	23
45	717	30.970020359997	24
45	761	34.300013639998	25
45	775	34.300020359997	26
45	804	35.000013639998	27
45	851	37.630013639998	28
45	865	37.630020359997	29
45	909	40.960013639998	30
45	923	40.960020359997	31
45	967	44.290013639998	32
45	981	44.290020359997	33
45	1010	45.000013639998	34
45	1057	47.620013639998	35
45	1071	47.620020359997	36
45	1115	50.950013639998	37
45	1129	50.950020359997	38
45	1173	54.280013639998	39
45	1187	54.280020359997	40
45	1216	55.000013639998	41
45	1263	57.610013639998	42
45	1277	57.610020359997	43
45	1321	60.940013639998	44
45	1335	60.940020359997	45
45	1379	64.270013639998	46
45	1393	64.270020359997	47
45	1422	65.000013639998	48
45	1469	67.600013639998	49
45	1483	67.600020359997	50
45	1527	70.930013639998	51
45	1541	70.930020359997	52
45	1585	74.260013639998	53
45	1599	74.260020359997	54
45	1628	75.000013639998	55
45	1675	77.590013639998	56
45	1689	77.590020359997	57
45	1733	80.920013639998	58
45	1747	80.920020359997	59
45	1791	84.250013639998	60
45	1805	84.250020359997	61
45	1834	85.000013639998	62
45	1881	87.580013639998	63
45	1895	87.580020359997	64
45	1939	90.910013639998	65
45	1953	90.910020359997	66
45	1997	94.240013639998	67
45	2011	94.240020359997	68
45	2040	95.000013639998	69
45	2087	97.570013639998	70
45	2101	97.570020359997	71
45	2145	100.900013639998	72
45	2159	100.900020359997	73
45	2203	104.230013639998	74
45	2217	104.230020359997	75
45	2246	105.000013639998	76
45	2293	107.560013639998	77
45	2307	107.560020359997	78
45	2351	110.890013639998	79
45	2365	110.890020359997	80
45	2409	114.220013639998	81
45	2423	114.220020359997	82
45	2452	115.000013639998	83
45	2499	117.550013639998	84
45	2513	117.550020359997	85
45	2557	120.880013639998	86
45	2571	120.880020359997	87
45	2615	124.210013639998	88
45	2629	124.210020359997	89
45	2658	125.000013639998	90
45	2705	127.540013639998	91
45	2719	127.540020359997	92
45	2763	130.870013639998	93
45	2777	130.870020359997	94
45	2821	134.200013639998	95
45	2835	134.200020359997	96
45	2864	135.000013639998	97
45	2911	137.530013639998	98
45	2925	137.530020359997	99
45	2969	140.860013639998	100
45	2983	140.860020359997	101
45	3027	144.190013639998	102
45	3041	144.190020359997	103
45	3070	145.000013639998	104
45	3117	147.520013639998	105
45	3131	147.520020359997	106
45	3175	150.850013639998	107
45	3189	150.850020359997	108
45	3233	154.180013639998	109
45	3247	154.180020359997	110
45	3276	155.000013639998	111
45	3323	157.510013639998	112
45	3337	157.510020359997	113
45	3381	160.840013639998	114
45	3395	160.840020359997	115
45	3439	164.170013639998	116
45	3453	164.170020359997	117
45	3482	165.000013639998	118
45	3529	167.500013639998	119
45	3543	167.500020359997	120
45	3587	170.830013639998	121
45	3601	170.830020359997	122
45	3645	174.160013639998	123
45	3659	174.160020359997	124
45	3688	175.000013639998	125
45	3735	177.490013639998	126
45	3749	177.490020359997	127
45	3793	180.820013639998	128
45	3807	180.820020359997	129
45	3851	184.150013639998	130
45	3865	184.150020359997	131
45	3894	185.000013639998	132
45	3941	187.480013639998	133
45	3955	187.480020359997	134
47	65	1.000013639998	64
47	79	1.000020359997	128
47	123	4.330013639998	192
47	137	4.330020359997	256
47	181	7.660013639998	320
47	195	7.660020359997	384
47	239	10.990013639998	448
47	253	10.990020359997	512
47	297	14.320013639998	576
47	311	14.320020359997	640
47	367	15.000013639998	704
47	384	15.000020359997	768
47	395	15.000027079996	832
47	439	17.650013639998	896
47	453	17.650020359997	960
47	497	20.980013639998	1024
47	511	20.980020359997	1088
47	555	24.310013639998	1152
47	569	24.310020359997	1216
47	598	25.000013639998	1280
47	645	27.640013639998	1344
47	659	27.640020359997	1408
47	703	30.970013639998	1472
47	717	30.970020359997	1536
47	761	34.300013639998	1600
47	775	34.300020359997	1664
47	804	35.000013639998	1728
47	851	37.630013639998	1792
47	865	37.630020359997	1856
47	909	40.960013639998	1920
47	923	40.960020359997	1984
47	967	44.290013639998	2048
47	981	44.290020359997	2112
47	1010	45.000013639998	2176
47	1057	47.620013639998	2240
47	1071	47.620020359997	2304
47	1115	50.950013639998	2368
47	1129	50.950020359997	2432
47	1173	54.280013639998	2496
47	1187	54.280020359997	2560
47	1216	55.000013639998	2624
47	1263	57.610013639998	2688
47	1277	57.610020359997	2752
47	1321	60.940013639998	2816
47	1335	60.940020359997	2880
47	1379	64.270013639998	2944
47	1393	64.270020359997	3008
47	1422	65.000013639998	3072
47	1469	67.600013639998	3136
47	1483	67.600020359997	3200
47	1527	70.930013639998	3264
47	1541	70.930020359997	3328
47	1585	74.260013639998	3392
47	1599	74.260020359997	3456
47	1628	75.000013639998	3520
47	1675	77.590013639998	3584
47	1689	77.590020359997	3648
47	1733	80.920013639998	3712
47	1747	80.920020359997	3776
47	1791	84.250013639998	3840
47	1805	84.250020359997	3904
47	1834	85.000013639998	3968
47	1881	87.580013639998	4032
47	1895	87.580020359997	4096
47	1939	90.910013639998	4160
47	1953	90.910020359997	4224
47	1997	94.240013639998	4288
47	2011	94.240020359997	4352
47	2040	95.000013639998	4416
47	2087	97.570013639998	4480
47	2101	97.570020359997	4544
47	2145	100.900013639998	4608
47	2159	100.900020359997	4672
47	2203	104.230013639998	4736
47	2217	104.230020359997	4800
47	2246	105.000013639998	4864
47	2293	107.560013639998	4928
47	2307	107.560020359997	4992
47	2351	110.890013639998	5056
47	2365	110.890020359997	5120
47	2409	114.220013639998	5184
47	2423	114.220020359997	5248
47	2452	115.000013639998	5312
47	2499	117.550013639998	5376
47	2513	117.550020359997	5440
47	2557	120.880013639998	5504
47	2571	120.880020359997	5568
47	2615	124.210013639998	5632
47	2629	124.210020359997	5696
47	2658	125.000013639998	5760
47	2705	127.540013639998	5824
47	2719	127.540020359997	5888
47	2763	130.870013639998	5952
47	2777	130.870020359997	6016
47	2821	134.200013639998	6080
47	2835	134.200020359997	6144
47	2864	135.000013639998	6208
47	2911	137.530013639998	6272
47	2925	137.530020359997	6336
47	2969	140.860013639998	6400
47	2983	140.860020359997	6464
47	3027	144.190013639998	6528
47	3041	144.190020359997	6592
47	3070	145.000013639998	6656
47	3117	147.520013639998	6720
47	3131	147.520020359997	6784
47	3175	150.850013639998	6848
47	3189	150.850020359997	6912
47	3233	154.180013639998	6976
47	3247	154.180020359997	7040
47	3276	155.000013639998	7104
47	3323	157.510013639998	7168
47	3337	157.510020359997	7232
47	3381	160.840013639998	7296
47	3395	160.840020359997	7360
47	3439	164.170013639998	7424
47	3453	164.170020359997	7488
47	3482	165.000013639998	7552
47	3529	167.500013639998	7616
47	3543	167.500020359997	7680
47	3587	170.830013639998	7744
47	3601	170.830020359997	7808
47	3645	174.160013639998	7872
47	3659	174.160020359997	7936
47	3688	175.000013639998	8000
47	3735	177.490013639998	8064
47	3749	177.490020359997	8128
47	3793	180.820013639998	8192
47	3807	180.820020359997	8256
47	3851	184.150013639998	8320
47	3865	184.150020359997	8384
47	3894	185.000013639998	8448
47	3941	187.480013639998	8512
47	3955	187.480020359997	8576
51	65	1.000013639998	1
51	79	1.000020359997	2
51	123	4.330013639998	3
51	137	4.330020359997	4
51	181	7.660013639998	5
51	195	7.660020359997	6
51	239	10.990013639998	7
51	253	10.990020359997	8
51	297	14.320013639998	9
51	311	14.320020359997	10
51	367	15.000013639998	11
51	384	15.000020359997	12
51	395	15.000027079996	13
51	439	17.650013639998	14
51	453	17.650020359997	15
51	497	20.980013639998	16
51	511	20.980020359997	17
51	555	24.310013639998	18
51	569	24.310020359997	19
51	598	25.000013639998	20
51	645	27.640013639998	21
51	659	27.640020359997	22
51	703	30.970013639998	23
51	717	30.970020359997	24
51	761	34.300013639998	25
51	775	34.300020359997	26
51	804	35.000013639998	27
51	851	37.630013639998	28
51	865	37.630020359997	29
51	909	40.960013639998	30
51	923	40.960020359997	31
51	967	44.290013639998	32
51	981	44.290020359997	33
51	1010	45.000013639998	34
51	1057	47.620013639998	35
51	1071	47.620020359997	36
51	1115	50.950013639998	37
51	1129	50.950020359997	38
51	1173	54.280013639998	39
51	1187	54.280020359997	40
51	1216	55.000013639998	41
51	1263	57.610013639998	42
51	1277	57.610020359997	43
51	1321	60.940013639998	44
51	1335	60.940020359997	45
51	1379	64.270013639998	46
51	1393	64.270020359997	47
51	1422	65.000013639998	48
51	1469	67.600013639998	49
51	1483	67.600020359997	50
51	1527	70.930013639998	51
51	1541	70.930020359997	52
51	1585	74.260013639998	53
51	1599	74.260020359997	54
51	1628	75.000013639998	55
51	1675	77.590013639998	56
51	1689	77.590020359997	57
51	1733	80.920013639998	58
51	1747	80.920020359997	59
51	1791	84.250013639998	60
51	1805	84.250020359997	61
51	1834	85.000013639998	62
51	1881	87.580013639998	63
51	1895	87.580020359997	64
51	1939	90.910013639998	65
51	1953	90.910020359997	66
51	1997	94.240013639998	67
51	2011	94.240020359997	68
51	2040	95.000013639998	69
51	2087	97.570013639998	70
51	2101	97.570020359997	71
51	2145	100.900013639998	72
51	2159	100.900020359997	73
51	2203	104.230013639998	74
51	2217	104.230020359997	75
51	2246	105.000013639998	76
51	2293	107.560013639998	77
51	2307	107.560020359997	78
51	2351	110.890013639998	79